LAMMPS data file via write_data, version 29 Sep 2021, timestep = 12591

3530 atoms
2 atom types

0.1368628011836433 35.289853578720844 xlo xhi
-41.206812126396 41.206812126396 ylo yhi
-0.4847801719160926 27.712912049589676 zlo zhi

Masses

1 107.8682
2 58.6934

Atoms # atomic

3 1 3.1655758221416215 -38.377844903031736 0.6395132341065497 1 1 0
1766 1 1.7005660000217533 -39.235480705718786 2.9889867251165563 2 1 0
1767 1 1.7014369343877294 -40.91729028136269 0.6271391037025312 2 1 0
1769 1 0.23627880865898437 -38.3773554711388 0.6385027760823085 2 1 0
5 1 4.629769510628399 -39.23681199692422 2.989555787754612 1 1 0
6 1 4.630170656930359 -40.918520147520795 0.6276848776543977 1 1 0
7 1 7.558338178451659 -39.238370681862534 2.989001947438868 1 1 0
8 1 6.094216125157062 -38.378572117226874 0.6396516658371832 1 1 0
9 1 7.558070666161097 -40.92001627934964 0.6269972433058502 1 1 0
10 1 9.022447438168191 -38.37953939307933 0.6387929164361069 1 1 0
11 1 10.486715260158418 -39.23945275279838 2.987562614062919 1 1 0
12 1 10.485749915201703 -40.92130105953946 0.6254814247949727 1 1 0
13 1 11.950819505615296 -38.38045189752246 0.6372852539686662 1 1 0
15 1 13.415538859112198 -39.23966845187156 2.9857630653049747 1 1 0
14 1 13.414215349885671 -40.921744589351306 0.6235141694791398 1 1 0
16 1 16.345072977022884 -39.23925977400445 2.9842024628399275 1 1 0
17 1 16.34392953711231 -40.92140574417203 0.6216545676844593 1 1 0
18 1 14.87985954602647 -38.3808145623378 0.6357871191159884 1 1 0
1 1 19.27507850594926 -39.23868393336656 2.983155679397103 1 1 0
2 1 19.274509552563615 -40.92073260733743 0.6202862543587926 1 1 0
4 1 17.809605587988287 -38.38049036199362 0.6347337422827708 1 1 0
1768 1 20.739690658147524 -38.37969979170827 0.6341749628832053 1 1 0
1770 1 22.205123103804596 -39.23814414913261 2.9826633469826436 1 1 0
1771 1 22.205224306958772 -40.91992324011392 0.6195608494446074 1 1 0
1772 1 25.134880242629286 -39.23749232527848 2.9828065138617563 1 1 0
1773 1 23.66973608302872 -38.378689235754905 0.6340518384636457 1 1 0
1774 1 25.135471542335857 -40.91888012330239 0.6196150244646685 1 1 0
1775 1 26.599643135017924 -38.377739886060226 0.6344364654198513 1 1 0
1776 1 28.06436673699497 -39.23654013105928 2.9837622030609534 1 1 0
1777 1 28.065237235614706 -40.91768678619613 0.62070258600166 1 1 0
1778 1 29.529549782822162 -38.37718262430486 0.6354817976905931 1 1 0
1780 1 30.993954177003523 -39.23552602841607 2.985498406868294 1 1 0
1779 1 30.995011671304372 -40.91685186412829 0.6228671325294719 1 1 0
1781 1 33.923798120047486 -39.23501865508798 2.9874693836727757 1 1 0
1782 1 33.924892092189275 -40.9166860787813 0.6253406245433767 1 1 0
1783 1 32.45948720373707 -38.37709944537761 0.6370010671482963 1 1 0
19 1 3.164948415356797 -36.693828787769235 3.0003397640239435 1 1 0
1788 1 0.23537836251177205 -36.69337475085365 2.9993566897369517 2 1 0
22 1 3.164811424235426 -33.299927066235455 0.6572437397225294 1 1 0
1785 1 1.6998555673416025 -34.15319786484856 3.008554253187911 2 1 0
1786 1 1.7005289491428057 -35.83850572077392 0.6488572923974386 2 1 0
1801 1 0.2353375555353866 -33.299799817619 0.6563289522882215 2 1 0
26 1 6.094044285971444 -36.694612686409634 3.000617552118373 1 1 0
25 1 4.6292897364516605 -34.153403222423606 3.0094311726169365 1 1 0
24 1 4.629691888403008 -35.83873607139899 0.6495698431951342 1 1 0
27 1 7.558428720287276 -34.15389879291788 3.009486285272402 1 1 0
28 1 7.5584322242108675 -35.839206863830796 0.6494616687005781 1 1 0
29 1 6.093945728516928 -33.30000838610928 0.6578836580151091 1 1 0
30 1 11.951592645987072 -36.696456937872505 2.998351678351207 1 1 0
31 1 9.022794962401038 -36.695609712405194 2.999851985388374 1 1 0
32 1 9.022854331741675 -33.30046166450231 0.657415977102739 1 1 0
33 1 10.487440368259204 -34.154765223267546 3.0083719285303316 1 1 0
34 1 11.951825717957217 -33.30115855888579 0.6560558141376037 1 1 0
35 1 10.487060922239097 -35.84000363155722 0.6483716164615325 1 1 0
39 1 14.880776403957249 -36.69672299267186 2.996916011338075 1 1 0
37 1 13.415949958807499 -35.84069819100165 0.6469609390087372 1 1 0
38 1 13.416559879405739 -34.15546995378465 3.006870699805127 1 1 0
40 1 16.345887170173892 -34.15548770098454 3.005940578306502 1 1 0
41 1 14.881024271413754 -33.30148580417371 0.6549048220959889 1 1 0
42 1 16.345261410651478 -35.84077480626592 0.6459862993945522 1 1 0
23 1 17.810347515813163 -36.696371236128904 2.996051918733014 1 1 0
1784 1 20.740071971270456 -36.69568931534201 2.9957323075866924 1 1 0
20 1 19.275360489116558 -34.15487455545097 3.005766570222155 1 1 0
21 1 19.274886401302705 -35.84017762104886 0.6456224942257957 1 1 0
36 1 17.81042248140548 -33.30112160581939 0.6545474155792002 1 1 0
1787 1 20.739920596287085 -33.30025774008187 0.6547827149957818 1 1 0
1791 1 23.669719071524227 -36.69491754947915 2.9957884571060025 1 1 0
1790 1 22.20485852216208 -34.15401528798439 3.005992044979775 1 1 0
1789 1 22.204618540858423 -35.83923306264317 0.6456331845565223 1 1 0
1792 1 25.134327222634543 -34.153276234861416 3.006295586752283 1 1 0
1793 1 25.13437307884851 -35.83837014344628 0.6458426103008383 1 1 0
1794 1 23.669467498008135 -33.29938319441957 0.6551347976201544 1 1 0
1795 1 29.52882395785912 -36.69359013700547 2.996994890935685 1 1 0
1796 1 26.59925014179149 -36.69417597662824 2.9961894236205313 1 1 0
1797 1 26.599090176971824 -33.298921670028626 0.6553682968372276 1 1 0
1798 1 28.063834827317397 -34.152869030536586 3.0065966851344035 1 1 0
1799 1 29.52881771175595 -33.299001438557745 0.6554827608504771 1 1 0
1800 1 28.064191323538275 -35.837923634493 0.6462673143021161 1 1 0
1804 1 32.45856126567526 -36.69329385418958 2.998130137256192 1 1 0
1802 1 30.994074553346152 -35.83795263478918 0.6469442559406144 1 1 0
1803 1 30.993454569549225 -34.15281991114769 3.0069844498819744 1 1 0
1805 1 33.923171975325545 -34.1529926443412 3.0076282018160807 1 1 0
1806 1 32.4586098819068 -33.29941869755776 0.6557193224075564 1 1 0
1807 1 33.92391759730468 -35.83823761726323 0.6478629144610384 1 1 0
43 1 3.1643318363562667 -31.613415469172267 3.016076964082782 1 1 0
64 1 3.1643742582106893 -28.223968135890676 0.6697784060337708 1 1 0
1809 1 1.699383461909586 -29.0732820628016 3.0212697276983835 2 1 0
1810 1 1.699808776438048 -30.76163760686589 0.6633628423093219 2 1 0
1823 1 0.23477289119170805 -31.613330978703566 3.015044500478713 2 1 0
1828 1 0.2347856067572313 -28.223717249450303 0.6687730295496608 2 1 0
46 1 4.629212287492154 -30.761653449404328 0.6644623216096993 1 1 0
47 1 4.628887526584473 -29.073223617152728 3.022624502481703 1 1 0
48 1 6.093725512217621 -31.613446157676265 3.016988328057591 1 1 0
49 1 7.558268218652246 -29.07328943620366 3.023290516454537 1 1 0
50 1 7.558344653640354 -30.761760108931394 0.6648901208071636 1 1 0
51 1 6.093694407727299 -28.223981690571367 0.6709446760279434 1 1 0
52 1 9.022970228928212 -31.613960646555558 3.0165898458699365 1 1 0
53 1 11.952190040507395 -31.61478276051507 3.015062489079695 1 1 0
54 1 10.487584392619423 -29.07394635618566 3.0221422070050004 1 1 0
55 1 10.487411233287697 -30.762264805941406 0.6638563593647054 1 1 0
56 1 11.952036566716195 -28.224603380985315 0.6692757848100598 1 1 0
75 1 9.022816477753949 -28.22421373511974 0.6707479698931029 1 1 0
57 1 13.416634346731751 -30.76268654371737 0.6624240150711652 1 1 0
59 1 13.416917570772249 -29.07448435025807 3.0205301087647682 1 1 0
60 1 14.88147264581009 -31.61511656455548 3.0138247074600852 1 1 0
61 1 16.346269666890706 -29.07427525667063 3.0199465649927775 1 1 0
62 1 16.3460081750862 -30.76250201616957 0.6618090086553169 1 1 0
81 1 14.881450149307431 -28.224560179516146 0.6682285227956657 1 1 0
44 1 19.27562418143838 -29.073456354016496 3.020448498239309 1 1 0
45 1 19.27542798876753 -30.76173268284579 0.6621260001868776 1 1 0
58 1 17.81081985085428 -31.61469427333054 3.01357770168094 1 1 0
1808 1 20.740202370780327 -31.613812094108642 3.0140304130515516 1 1 0
1829 1 20.74035123188417 -28.222879957482544 0.6692685121162676 1 1 0
63 1 17.810929242562345 -28.223882097070327 0.6683835255049104 1 1 0
1811 1 22.20484408526591 -30.76078778358552 0.66279229323305 1 1 0
1812 1 22.204979181603388 -29.072480043176057 3.0213274947715165 1 1 0
1813 1 23.669593732945774 -31.612967600752427 3.014548823117846 1 1 0
1814 1 25.134341366286527 -29.071864749377188 3.021792882749335 1 1 0
1815 1 25.134273503469373 -30.760183281793285 0.6631841188857563 1 1 0
1816 1 23.66969048614621 -28.222027380103984 0.6700862888865462 1 1 0
1817 1 26.599015524379784 -31.612535720180418 3.014744309261051 1 1 0
1818 1 29.528522170268648 -31.612610924090134 3.0146301084174 1 1 0
1819 1 28.063748680850413 -29.071887931724774 3.021510577640569 1 1 0
1820 1 28.063788301998528 -30.760198575968342 0.6630736088533942 1 1 0
1821 1 29.528443679280077 -28.22229138416072 0.6694268898648167 1 1 0
1840 1 26.599001951084208 -28.221800631910316 0.6701377566402758 1 1 0
1822 1 30.993441804517364 -30.7607123221283 0.6627267085915547 1 1 0
1824 1 30.993245321082025 -29.072404665844804 3.0208601261093997 1 1 0
1825 1 32.45812620773143 -31.612989890262334 3.014587227009196 1 1 0
1826 1 33.92280756534296 -29.072988136216882 3.020607872045626 1 1 0
1827 1 33.923163817518194 -30.761313680836885 0.6627037632971755 1 1 0
1846 1 32.458076099910016 -28.22308929042398 0.6687129798002585 1 1 0
65 1 3.1640830361691483 -26.531472864578962 3.0268298334651362 1 1 0
1831 1 1.699386568481387 -23.985046377321094 3.029951613500272 2 1 0
1832 1 1.6994890514618517 -25.68736510337888 0.6746196222826146 2 1 0
1833 1 0.23454477362793774 -26.531285405856664 3.025711204163935 2 1 0
69 1 4.628881845819823 -23.98515959946509 3.0313917521301885 1 1 0
70 1 4.629001791917389 -25.687592601712986 0.6759194639939945 1 1 0
71 1 6.093523742315975 -26.53138719411673 3.028294536775867 1 1 0
72 1 7.5581957975229255 -25.687710670085494 0.6766240680605039 1 1 0
73 1 7.558138506382453 -23.985245292721267 3.0322567183123112 1 1 0
74 1 9.022833697581438 -26.53167716246102 3.0281642182558013 1 1 0
76 1 11.952180996039091 -26.532251285155148 3.0265047574543176 1 1 0
77 1 10.487349481657535 -23.98562678710834 3.031363397578467 1 1 0
78 1 10.487341851755929 -25.68795243272379 0.6757495428240724 1 1 0
79 1 13.416739031352364 -23.985839598040144 3.0299800547337883 1 1 0
80 1 13.416728940267387 -25.68799834448109 0.6743999677407075 1 1 0
82 1 14.881577002545367 -26.5322787652124 3.02541489557835 1 1 0
84 1 16.34628938955834 -25.68746378352899 0.674170858686988 1 1 0
83 1 16.34620352098175 -23.98537547920005 3.0299057301086307 1 1 0
68 1 17.810980441915202 -26.53157632910345 3.0257446354779907 1 1 0
66 1 19.27566421223527 -23.98436848955284 3.031158051924622 1 1 0
67 1 19.275819267181397 -25.68644336679191 0.675120795115239 1 1 0
1830 1 20.740371561326285 -26.530554792179448 3.0268586257309797 1 1 0
1834 1 22.20510707621075 -23.98333791859935 3.03258336919385 1 1 0
1835 1 22.205204275366203 -25.685369513332812 0.6763223386772765 1 1 0
1836 1 23.669741491652022 -26.52966747444683 3.0278501649866003 1 1 0
1837 1 25.13441811142873 -25.68470346191375 0.6769407065204571 1 1 0
1838 1 25.134480524885213 -23.982626181805678 3.033315763361263 1 1 0
1839 1 26.599091157581114 -26.529426573543763 3.027848675593367 1 1 0
1841 1 29.52849523606035 -26.52993872541266 3.0268263492596943 1 1 0
1842 1 28.063832655368 -23.982879191135666 3.032416053188851 1 1 0
1843 1 28.06362395460557 -25.684934738549096 0.6762746490790671 1 1 0
1844 1 30.993275973296498 -23.983786461776212 3.0306517990274293 1 1 0
1845 1 30.993074389888907 -25.68583375386896 0.6749395429762074 1 1 0
1847 1 32.45799243693232 -26.530717902248803 3.0257843679600365 1 1 0
1849 1 33.92276278140016 -25.68675410833248 0.674198242409698 1 1 0
1848 1 33.922814903426115 -23.984566701188452 3.0296286070797542 1 1 0
86 1 3.164272077666725 -23.154302039609675 0.6802531664219622 1 1 0
1863 1 0.2345536433654797 -23.153707901215803 0.6795129601422787 2 1 0
85 1 3.164329785694529 -21.428058748849935 3.0320099832995098 1 1 0
1852 1 1.6994214330188548 -20.62917921197397 0.683230604431274 2 1 0
1865 1 0.23475746040335266 -21.427664400832352 3.031438455382397 2 1 0
91 1 6.093619026298627 -23.154553838789145 0.6812812490061189 1 1 0
88 1 4.628988905967097 -20.62966707420959 0.6836873086544073 1 1 0
89 1 6.09361115483554 -21.428191009695066 3.032974804365292 1 1 0
90 1 7.558185678560683 -20.629888129963327 0.684043350092585 1 1 0
93 1 9.022713511257011 -23.1547142093953 0.6812844562231302 1 1 0
96 1 11.951961064914887 -23.154761970180584 0.6803002900537324 1 1 0
92 1 9.022661382800761 -21.428408841826016 3.033048482852872 1 1 0
94 1 11.951858676527703 -21.42866296301515 3.032247229353762 1 1 0
95 1 10.487323664358822 -20.6299568442521 0.6838543211011822 1 1 0
102 1 14.881522576577897 -23.154404961899537 0.6797276464535987 1 1 0
97 1 13.41673923322569 -20.629767729969274 0.6836035924992937 1 1 0
99 1 14.881324444444903 -21.42848511815061 3.0319149450641736 1 1 0
101 1 16.34643123697423 -20.629125898921224 0.6842154598122361 1 1 0
98 1 17.811185965962775 -23.153495554969677 0.6805226547891455 1 1 0
1851 1 20.74069195164085 -23.15229341726649 0.6820394918866561 1 1 0
100 1 17.81085840566648 -21.427665336873662 3.033039111608225 1 1 0
87 1 19.276105351011125 -20.627973559227183 0.6858314815757122 1 1 0
1850 1 20.740312387258818 -21.42660093998799 3.0348846946820185 1 1 0
1856 1 23.66993994931606 -23.151169916359187 0.6833372379886128 1 1 0
1853 1 22.20547140512996 -20.62654936808765 0.6878303824842676 1 1 0
1854 1 23.66976253984878 -21.425518041894268 3.0364928304318966 1 1 0
1855 1 25.134447191061728 -20.62542065593825 0.6891282860218181 1 1 0
1858 1 26.598973297201336 -23.1507992095078 0.6833450073484753 1 1 0
1861 1 29.528160265780492 -23.151566189778404 0.6817090363532754 1 1 0
1857 1 26.599182371042563 -21.425114040301423 3.036538098320774 1 1 0
1859 1 29.52864181339187 -21.425951137236243 3.034414130146148 1 1 0
1860 1 28.06334990394887 -20.625597444035336 0.6880129592720091 1 1 0
1867 1 32.45774394365369 -23.152743246317637 0.6800261996964501 1 1 0
1862 1 30.992688988937832 -20.626894864134133 0.6853320762159018 1 1 0
1864 1 32.45817421271606 -21.426984846719172 3.0322292285824357 1 1 0
1866 1 33.92250898536323 -20.628214085892427 0.6835933190532831 1 1 0
103 1 1.6997266703164533 -18.848703674901603 3.027208257583135 1 0 0
104 1 3.1641534211553237 -16.221506295265762 3.0143781251122777 1 0 0
105 1 3.164127204673495 -18.127490794763617 0.6831406868221306 1 0 0
106 1 1.6992405451010348 -15.68799874315338 0.5752396383249307 1 0 0
119 1 0.23444452865372004 -16.22111634665388 3.015879055815718 1 0 0
120 1 0.23439873006883347 -18.126870661699844 0.6838557724833234 1 0 0
107 1 4.629111518742019 -18.848995583340923 3.027169740275351 1 0 0
109 1 7.558212620879288 -18.849170125516594 3.027346595329768 1 0 0
108 1 4.628775983207467 -15.688380694411821 0.57408677161142 1 0 0
110 1 6.093740093718275 -16.221670280853075 3.013753517922895 1 0 0
111 1 6.0935684273467 -18.12778016097531 0.6829816426857275 1 0 0
886 1 7.558207504088752 -15.688539748825882 0.5738318373427178 1 0 0
114 1 10.487269898855507 -18.849399869089652 3.0274634773328515 1 0 0
112 1 9.022837140474302 -18.12790980098965 0.6831260299915697 1 0 0
113 1 9.02326654138847 -16.221876194732765 3.0139401889569464 1 0 0
115 1 11.952746109755067 -16.2220789325852 3.014855602649898 1 0 0
116 1 10.487578763330601 -15.688609550863106 0.5743771576884275 1 0 0
117 1 11.952156524986036 -18.127906912664884 0.6835574995896062 1 0 0
121 1 13.416550770826024 -18.84944122661745 3.0277647250741655 1 0 0
1887 1 16.346071345078933 -18.848931297795005 3.028853072179474 1 0 0
118 1 13.416909206428155 -15.688522384405267 0.5755608143214117 1 0 0
1888 1 14.882205525072155 -16.22194741642896 3.01631366343137 1 0 0
1889 1 16.346236575054974 -15.68818396127437 0.5771739772784079 1 0 0
1890 1 14.881662971256143 -18.127627464641687 0.6844735048478356 1 0 0
1868 1 19.27554048014825 -18.847955249513454 3.0308338764516813 1 0 0
1885 1 17.81129749585734 -18.126886117777456 0.6860445567949108 1 0 0
1869 1 20.741557280803985 -16.21999472774147 3.0214897073163454 1 0 0
1870 1 20.74091245855198 -18.12541508458394 0.6885871133864406 1 0 0
1871 1 19.275614514651867 -15.68729706824705 0.579612932197135 1 0 0
1884 1 17.811764811335063 -16.221303778189476 3.018266013022255 1 0 0
1872 1 22.204913003089697 -18.846827818655193 3.033410858947503 1 0 0
1874 1 25.134394278849484 -18.845667662220052 3.035465604598348 1 0 0
1873 1 22.20494256368914 -15.685359157219283 0.5829315353925728 1 0 0
1875 1 23.670788978290233 -16.218825340847328 3.025027069671592 1 0 0
1876 1 23.670065667013894 -18.12372294553916 0.6912844746465961 1 0 0
2651 1 25.134077011399803 -15.683717480042784 0.5850991219908138 1 0 0
1879 1 28.06397508150666 -18.84591379258991 3.034144740502286 1 0 0
1877 1 26.59869874915178 -18.12303225270521 0.6918370900688824 1 0 0
1878 1 26.599149979272422 -16.218438377180842 3.0260618672007866 1 0 0
1880 1 29.527691896881873 -16.219026958749307 3.023263047695946 1 0 0
1881 1 28.063201526848502 -15.683856831817359 0.5843606577160952 1 0 0
1882 1 29.527607081457845 -18.12391949427826 0.689249941244318 1 0 0
1886 1 30.99355010205944 -18.84721105131365 3.030458634788501 1 0 0
122 1 33.923115837571785 -18.848049888796012 3.028071094601524 0 0 0
123 1 32.457349253340944 -16.22011110055288 3.0189631772370387 0 0 0
124 1 33.92251147817898 -15.687314522897498 0.5775277084912641 0 0 0
125 1 32.45734586777875 -18.125582814596132 0.6858587810931733 0 0 0
1883 1 30.99270964331608 -15.685595416223446 0.5811564143865559 1 0 0
127 1 1.6988216570230539 -13.543523262798782 2.34357795634135 1 0 0
129 1 3.1643585704835244 -10.981670346837864 1.7772139698045137 1 0 0
143 1 0.23395285484208642 -10.981756130820411 1.77882945182906 1 0 0
128 1 4.6291760891906755 -13.543551675135115 2.3419711982955906 1 0 0
131 1 7.559463899831124 -13.543625294598494 2.3415810230495655 1 0 0
133 1 6.094697423924424 -10.981432094108929 1.7767469319961289 1 0 0
134 1 10.489590952149387 -13.544042241521215 2.3425440483996547 1 0 0
153 1 11.954681168762209 -10.982012160232294 1.7788387649683015 1 0 0
138 1 9.024843826162831 -10.981554573800711 1.7773478073361932 1 0 0
137 1 13.419508512344224 -13.54450344826882 2.34438611061452 1 0 0
1906 1 16.34923457831537 -13.54442456327982 2.3461383332258565 1 0 0
1909 1 14.88413117228476 -10.982270287143148 1.7804815155481788 1 0 0
1892 1 19.27894009511353 -13.543696523586856 2.3484483919784314 1 0 0
1908 1 17.813423193225745 -10.982071130458149 1.7818252394197096 1 0 0
1894 1 20.742882161566065 -10.98196454835213 1.7844869803979628 1 0 0
1893 1 22.208352846042693 -13.543588565214897 2.3540789829642357 1 0 0
1896 1 25.136344387374734 -13.544435879708407 2.359434781773946 1 0 0
1898 1 23.67183313325809 -10.982898388351268 1.7898491396877014 1 0 0
1899 1 28.063742749397917 -13.544434260567222 2.3586469424324115 1 0 0
1918 1 29.52752092404164 -10.982889892538454 1.7887011343855668 1 0 0
1903 1 26.599694320186895 -10.983600805430395 1.7924533858976741 1 0 0
1902 1 30.991906584020004 -13.543388368969696 2.352066667595952 1 0 0
141 1 33.92165414225922 -13.54318962045095 2.3460847146385952 0 0 0
144 1 32.45674049983179 -10.981852265943164 1.7822776806767018 0 0 0
146 1 1.6997674769191973 -9.722783733943643 3.9327535475486703 1 0 0
145 1 3.164653154036159 -7.233318541505645 3.623702934739441 1 0 0
147 1 1.6992720381151762 -8.380346914523054 1.3901874420827085 1 0 0
159 1 0.2345889468615589 -7.233218981496551 3.625123777241075 1 0 0
148 1 4.629812079017774 -9.722651275816693 3.9321774363762274 1 0 0
151 1 7.559854044454585 -9.722693543699267 3.9326129975752955 1 0 0
149 1 4.629645170017905 -8.380194526344624 1.3896022444651408 1 0 0
150 1 6.0949837142247265 -7.233315808948937 3.6239684944115735 1 0 0
152 1 7.560002778231756 -8.380065748649015 1.3903148876177656 1 0 0
155 1 10.489654744478333 -9.723044716680718 3.933823496320557 1 0 0
154 1 9.025098759134062 -7.233257038890438 3.6257167992201875 1 0 0
156 1 11.954510330760863 -7.2330585752544225 3.6283387847514583 1 0 0
157 1 10.48997789767356 -8.380099503143512 1.3920667532656799 1 0 0
158 1 13.419370219688831 -8.380159031241961 1.3942747457450115 1 0 0
1927 1 14.883363572305193 -7.232760613179133 3.6306981430690506 1 0 0
1928 1 16.34838965689307 -8.380059605108979 1.3959684819817413 1 0 0
1910 1 20.741375543658414 -7.232461954368793 3.6331856982837083 1 0 0
1912 1 19.27747035897075 -8.380032604399728 1.3971739304041595 1 0 0
1924 1 17.81224870595576 -7.232514036124379 3.6319215916897623 1 0 0
1914 1 22.206618939366663 -8.380740188791433 1.3996906685168822 1 0 0
1915 1 23.670623974388516 -7.232750137497643 3.635586471615062 1 0 0
1917 1 25.135355023747962 -8.38187502636029 1.402726607896981 1 0 0
1919 1 26.599702048417402 -7.232737642844841 3.636531962081465 1 0 0
1921 1 29.528723350964185 -7.232948517423447 3.6339505380150534 1 0 0
1922 1 28.06373550227839 -8.381947673731197 1.4020609443446874 1 0 0
161 1 33.922534801718314 -9.722696197104307 3.9350261629473042 0 0 0
162 1 32.4579371549768 -7.232987050209853 3.628749609548559 0 0 0
163 1 33.92211564623102 -8.380457678248515 1.3925272655115444 0 0 0
1923 1 30.99248323858971 -8.381004039430048 1.3971232093180816 1 0 0
164 1 3.1645730243555064 -5.767858006407404 1.1742738522411493 1 0 0
165 1 1.6999814829831286 -4.7239926733599065 3.4780782639682863 1 0 0
181 1 0.23471054732649438 -5.767886333727466 1.1758856821622938 1 0 0
166 1 1.7001529883377162 -3.1721707114097684 1.0842215405202913 1 0 0
167 1 3.165250052946177 -2.207262471893251 3.424462218815165 1 0 0
169 1 0.23611917409361668 -2.207235700494092 3.4258938820398965 1 0 0
168 1 4.629724475820632 -4.724073254270699 3.476983233583069 1 0 0
171 1 7.55948569991781 -4.723999929789474 3.478119968787133 1 0 0
172 1 6.094620153190251 -5.767848638220501 1.1743955080176351 1 0 0
170 1 4.629638784821538 -3.1720865531533846 1.0832905353229363 1 0 0
173 1 7.559086082294214 -3.172202330666099 1.0840077612552592 1 0 0
174 1 6.094274233558945 -2.207189260751657 3.4242347943461233 1 0 0
175 1 9.02448022212842 -5.76785451101848 1.1761425896324655 1 0 0
176 1 10.488837656402287 -4.723785872553155 3.48076401383441 1 0 0
178 1 11.953924761481886 -5.767923636464291 1.1786673182938527 1 0 0
177 1 10.488445496962216 -3.1725048919123067 1.0857509314369778 1 0 0
188 1 9.023320726788231 -2.2070265750687525 3.4252362903201328 1 0 0
193 1 11.952611200044252 -2.2069250321500458 3.4263451839599757 1 0 0
179 1 13.417945898079715 -4.723601652566045 3.4832746817777083 1 0 0
1947 1 16.347239138159875 -4.723566643635346 3.484594780371167 1 0 0
1949 1 14.883118243975078 -5.768026112589422 1.1807345412732804 1 0 0
180 1 13.417824609525892 -3.1729036453497037 1.0873102160560977 1 0 0
1948 1 16.34730617654085 -3.1732192526708944 1.0881812811507785 1 0 0
1962 1 14.882223240911914 -2.206975880241927 3.4269666842025543 1 0 0
1946 1 17.81236635196569 -5.768123391039864 1.1817777263339462 1 0 0
1929 1 20.74167350535083 -5.768510289178073 1.1827613916555186 1 0 0
1930 1 19.276583882323553 -4.723633379895532 3.4854126906307146 1 0 0
1931 1 19.276779575007193 -3.173490665185824 1.0889268968632413 1 0 0
1932 1 20.741204174496065 -2.2072743713440635 3.4285504823545967 1 0 0
1934 1 17.81175946199982 -2.2070822136429387 3.427686745993475 1 0 0
1933 1 22.20591987907431 -4.723856742216311 3.486388433224277 1 0 0
1936 1 25.135261269387016 -4.723790283479797 3.486688250887222 1 0 0
1937 1 23.67086295319348 -5.769409367195285 1.1842603792329696 1 0 0
1935 1 22.20618034613942 -3.173972447844102 1.0897708715595626 1 0 0
1938 1 25.135415664991257 -3.174289406419382 1.0899848949008002 1 0 0
1939 1 23.670594139275142 -2.2074479507979268 3.4291788070638405 1 0 0
1940 1 26.599881653873528 -5.769840365287799 1.1846523047030844 1 0 0
1941 1 28.064873249668757 -4.723715467910199 3.4859583727514223 1 0 0
1943 1 29.52893396483448 -5.769283218910033 1.1828265015927728 1 0 0
1942 1 28.06467751758357 -3.1740896797006775 1.089463426491593 1 0 0
1953 1 26.600100023135713 -2.207444348565279 3.4289458846611978 1 0 0
1958 1 29.52984370919072 -2.2073610122575866 3.4282623299421906 1 0 0
182 1 33.92362777452091 -4.723821229098635 3.4808358742950007 0 0 0
184 1 32.45818079637657 -5.768292666002461 1.1790386328607734 0 0 0
1944 1 30.99442007274801 -4.723768116919928 3.483972022372746 1 0 0
183 1 33.92365704918574 -3.1725577012172086 1.0862450785639008 0 0 0
1945 1 30.9941346527364 -3.173359109912265 1.088272569782676 1 0 0
197 1 32.45964785478573 -2.2072660543231524 3.4274201668451734 0 0 0
186 1 3.1652214602145543 -0.6002083326428226 1.0500304383866852 1 0 0
198 1 0.23587859067866568 -0.6005802850399488 1.0506888185234469 1 0 0
185 1 1.7010480997706126 0.31530701117229915 3.399805401919445 1 0 0
203 1 1.7008540360831326 1.9558929551308528 1.0283385170060282 1 0 0
191 1 6.094353787740513 -0.6001494538674568 1.0497664053102354 1 0 0
187 1 4.629915262093013 0.31544976002797454 3.399658040860043 1 0 0
189 1 4.630008706277472 1.9561656262729783 1.0285413434528246 1 0 0
190 1 7.5587092645357155 0.3156639152460708 3.399184563386176 1 0 0
192 1 7.559066012620697 1.9562390250080315 1.0278143154277564 1 0 0
194 1 9.023529848614796 -0.600393895196432 1.0499089422097285 1 0 0
196 1 11.952900418289362 -0.6008238631724144 1.050042629768733 1 0 0
195 1 10.487937765947352 0.3157829058395959 3.3985025040748664 1 0 0
213 1 10.48833803092526 1.956104744720382 1.0266360767224538 1 0 0
1966 1 14.882398115050167 -0.6012371984871189 1.0502010003624511 1 0 0
199 1 13.417516319287243 0.315706697955216 3.398062895105366 1 0 0
219 1 13.417725187395956 1.955802029161145 1.0258823003948947 1 0 0
1965 1 16.34695017384752 0.31558734371062014 3.3984359901515386 1 0 0
1967 1 16.347001737096925 1.9554571888800583 1.0259907558150192 1 0 0
1951 1 20.741229347564843 -0.6018977805819147 1.0516105667552782 1 0 0
1963 1 17.811835922429857 -0.6015533332172874 1.0507919863830577 1 0 0
1950 1 19.276309220348324 0.31542014077187125 3.399180004745835 1 0 0
1968 1 19.276240207828153 1.9551028717791779 1.026522289994125 1 0 0
1956 1 23.670542184257542 -0.6021928560008055 1.0522493258712182 1 0 0
1952 1 22.205658471127833 0.31509139895090066 3.400075229881828 1 0 0
1954 1 22.205486741224796 1.9547240767600762 1.0272586422624062 1 0 0
1955 1 25.13509532828059 0.3147637474819229 3.4005516999883256 1 0 0
1957 1 25.13482201284331 1.9544765915598585 1.0277200810298532 1 0 0
1959 1 26.5998685809492 -0.6021737241250938 1.0521898798397575 1 0 0
1961 1 29.529400515941237 -0.601814655568155 1.051715128061603 1 0 0
1960 1 28.064712500288003 0.31472573364493406 3.400219572128877 1 0 0
1978 1 28.064391743137783 1.9545471028643442 1.0275699302001977 1 0 0
201 1 32.45918029848903 -0.6012085170688937 1.051303357990845 0 0 0
1964 1 30.994558221159508 0.31486609350249956 3.399703463130304 1 0 0
1984 1 30.99424339951825 1.9548890166481263 1.02727500362895 1 0 0
200 1 33.92455049645599 0.3151463385990485 3.3996622003709245 0 0 0
202 1 33.92421396130644 1.9554242947872589 1.0276077795609095 0 0 0
204 1 3.1655977483425426 2.8442376816122183 3.377116352283075 1 0 0
206 1 3.165657544962151 4.505372953736041 1.0056405562915558 1 0 0
208 1 0.23616810665089255 4.505087974832305 1.0041852250983445 1 0 0
209 1 0.23623992041122416 2.844035402766349 3.375808513301972 1 0 0
205 1 1.7008089583563513 5.376561358705764 3.3519982265991897 1 0 0
210 1 6.0945305907256575 2.8445292003345046 3.3768359057015673 1 0 0
212 1 6.094785359877434 4.505649695611476 1.0054174088674985 1 0 0
207 1 4.6302206946750095 5.376729521127464 3.353139234573757 1 0 0
211 1 7.5594605364720655 5.377355949536843 3.3516577061860655 1 0 0
214 1 9.023691645915074 2.8449039991079985 3.375098138274823 1 0 0
215 1 9.024004740662779 4.505976849082524 1.0037277103925233 1 0 0
216 1 11.953131377593992 2.845031871907728 3.3736089724758602 1 0 0
218 1 11.953345388423052 4.506086342059395 1.0022646602341898 1 0 0
217 1 10.488866525229858 5.3779503099204735 3.3495142841923586 1 0 0
1986 1 14.88234607424438 2.844927285286249 3.3733455785133635 1 0 0
1988 1 14.882481632372304 4.505919533001108 1.001782554262833 1 0 0
220 1 13.418066151059588 5.378104875842349 3.348686634519876 1 0 0
1987 1 16.347025343582693 5.378038900985291 3.3483470223939964 1 0 0
1969 1 20.74068377967657 2.8444294598400974 3.37418657455558 1 0 0
1971 1 20.74048624903147 4.505181126641507 1.0019768819597092 1 0 0
1973 1 17.811473620530585 4.505609643186934 1.0017134785767934 1 0 0
1974 1 17.81148725417377 2.844761790489825 3.3735945577552937 1 0 0
1970 1 19.27592523056147 5.377779678759524 3.3482393723414967 1 0 0
1975 1 23.670016235951383 2.8439346250803657 3.3748201097207424 1 0 0
1977 1 23.669673297281754 4.50469260664021 1.0023696205741606 1 0 0
1972 1 22.204997271638113 5.377259164283365 3.348406719735544 1 0 0
1976 1 25.134411984664457 5.376560369038592 3.3485927829372097 1 0 0
1979 1 26.5995675867622 2.843540315440214 3.374999553714178 1 0 0
1980 1 26.59919389674478 4.504338580132361 1.0025263795261792 1 0 0
1981 1 29.529365346574664 2.843434814582228 3.374734558640517 1 0 0
1983 1 29.52909410610543 4.504297724935593 1.0024794803591446 1 0 0
1982 1 28.064175921752764 5.375985188164235 3.348646222032422 1 0 0
221 1 32.45929738088561 2.8436895843270666 3.3746674278287934 0 0 0
223 1 32.459175914632425 4.5046480632350505 1.0027888664295734 0 0 0
1985 1 30.994070289921858 5.375920747999302 3.3488508412241615 1 0 0
222 1 33.9239672031384 5.3763131251261544 3.349809898321191 0 0 0
224 1 1.7010146046255827 7.05291189080558 0.9801245621916339 1 0 0
225 1 3.1655968912217185 7.910374529144062 3.327345691489112 1 0 0
228 1 0.23553752021346894 7.91030562399069 3.3251542740012723 1 0 0
226 1 1.7004762165721015 10.442786646152914 3.3007959715908313 1 0 0
227 1 3.1660644858369325 9.602704706977045 0.955245436938318 1 0 0
229 1 0.23584570851906597 9.602489882340079 0.9533553045110885 1 0 0
231 1 4.630513251919196 7.053147965696431 0.9811291737064951 1 0 0