LAMMPS data file via write_data, version 29 Sep 2021, timestep = 1217

3530 atoms
2 atom types

-0.061682576324292526 35.2416686509286 xlo xhi
-41.896771742888106 41.31521452311189 ylo yhi
-0.21354354461100156 27.11405294640351 zlo zhi

Masses

1 107.8682
2 58.6934

Atoms # atomic

3 1 2.980207488631709 -39.08248271602175 0.5744554955503759 1 1 0
1766 1 1.5088367013835282 -39.933906484565696 2.919793038913851 2 1 0
1767 1 1.509417883897598 -41.63716798752103 0.5773644490243014 2 1 0
1769 1 0.03801589177515518 -39.08227807549734 0.5736420320181381 2 1 0
5 1 4.45096499615322 -39.935149511470314 2.919952185563188 1 1 0
6 1 4.4512698989331145 -41.63822609520166 0.577341861460312 1 1 0
7 1 7.392433950189964 -39.93697105406989 2.918943781018736 1 1 0
8 1 5.921830440677815 -39.08307453325238 0.5742825648210551 1 1 0
9 1 7.392310980444138 -41.63986930259892 0.5760915739581337 1 1 0
10 1 8.8629991590002 -39.08409926722383 0.5731276610667274 1 1 0
11 1 10.333587123877068 -39.938565605940724 2.917174854066549 1 1 0
12 1 10.333004439786505 -41.641552811580794 0.5742286454984697 1 1 0
13 1 11.804141848050165 -39.08521645543825 0.5714534267864856 1 1 0
15 1 13.274988436609808 -39.93938155374999 2.9152735789301882 1 1 0
14 1 13.274163564920121 -41.642590491017174 0.572272834864125 1 1 0
16 1 16.216910923688115 -39.9394637937648 2.9138030856822295 1 1 0
17 1 16.216239991236087 -41.64277545765822 0.57065875327073 1 1 0
18 1 14.745683814759554 -39.08587876913792 0.569934820554752 1 1 0
1 1 19.159153635155104 -39.93914883849962 2.912965779089477 1 1 0
2 1 19.158905033754895 -41.6423836188356 0.5696332379593931 1 1 0
4 1 17.68768228525723 -39.085831241610464 0.5689570287967787 1 1 0
1768 1 20.629872042519825 -39.08522510250993 0.5685234266647565 1 1 0
1770 1 22.101347041273083 -39.938615489902496 2.912740904380708 1 1 0
1771 1 22.101536999534545 -41.641578889951155 0.569247152623367 1 1 0
1772 1 25.04325526129712 -39.937740030281276 2.9132050983703808 1 1 0
1773 1 23.572008413127175 -39.08430322323454 0.5685736502222133 1 1 0
1774 1 25.043704679528584 -41.64032665946317 0.5696463131891305 1 1 0
1775 1 26.514108311441607 -39.08336359674797 0.5691983421917838 1 1 0
1776 1 27.985021764965218 -39.93638247075668 2.914500300760467 1 1 0
1777 1 27.985597660286068 -41.63882940244148 0.5711026242699668 1 1 0
1778 1 29.456364213166186 -39.082682076091835 0.570477805820438 1 1 0
1780 1 30.927076353407468 -39.93483768009226 2.916472411621926 1 1 0
1779 1 30.92774487100385 -41.63756352079619 0.5734847558370176 1 1 0
1781 1 33.869590516064655 -39.93381354143659 2.9184849564607687 1 1 0
1782 1 33.87029334534126 -41.636945192487694 0.5759196602425478 1 1 0
1783 1 32.39885015644901 -39.082343718585925 0.572146825264326 1 1 0
19 1 2.9797393958209084 -37.37703334105251 2.9151531356439553 1 1 0
22 1 2.9796483433195213 -33.97309112534671 0.5595281824934406 1 1 0
1785 1 1.508322835327846 -34.82074133924484 2.906735073653858 2 1 0
1786 1 1.5088707791675013 -36.52777335991684 0.5679054752581306 2 1 0
1788 1 0.03736216939228557 -37.37684004613003 2.9142448202179008 2 1 0
1801 1 0.03745654607146275 -33.97328498898305 0.5584304314407329 2 1 0
25 1 4.450514923834712 -34.820701876583925 2.907664387973739 1 1 0
24 1 4.450856951147442 -36.52773341063381 0.5685826684731661 1 1 0
26 1 5.921672542290355 -37.377757415056685 2.9152294691973677 1 1 0
27 1 7.392390261236486 -34.821082785864476 2.907667052764688 1 1 0
28 1 7.392428982494969 -36.5280199752204 0.5683466472857522 1 1 0
29 1 5.921512482515057 -33.97285802711933 0.5602381862631 1 1 0
32 1 8.863109822860444 -33.97302839082221 0.5597723772103708 1 1 0
30 1 11.804624183268304 -37.38004314028422 2.912538958213427 1 1 0
31 1 8.863196382185924 -37.37890805133378 2.9142236634900853 1 1 0
33 1 10.334046180708645 -34.82195838982439 2.9064488927686454 1 1 0
34 1 11.804667911324017 -33.97351861068306 0.5583703716848426 1 1 0
35 1 10.333798878523853 -36.52874101361151 0.56711257666692 1 1 0
37 1 13.275264660982568 -36.52946348123022 0.5655905669203483 1 1 0
38 1 13.275674247095992 -34.822766208610844 2.9048329645238216 1 1 0
39 1 14.746256525840163 -37.38064550527415 2.9110079467038936 1 1 0
40 1 16.21737330084163 -34.82296473773294 2.903782269854271 1 1 0
41 1 14.746320925377677 -33.97376018440375 0.5571409282390679 1 1 0
42 1 16.216956071709006 -36.529669987523974 0.5645380764961712 1 1 0
20 1 19.159134762509936 -34.82259445210793 2.903477853514104 1 1 0
21 1 19.158822012970642 -36.529287987541565 0.5641111380205854 1 1 0
23 1 17.688125901689546 -37.38058277690795 2.91012561304163 1 1 0
36 1 17.688061963586524 -33.97350236799432 0.5566289444954736 1 1 0
1784 1 20.630073006628336 -37.38008616720351 2.909854089045934 1 1 0
1787 1 20.629856436466103 -33.972934807316285 0.5566746023886184 1 1 0
1790 1 22.100913786989615 -34.82198172983746 2.9036204337060947 1 1 0
1789 1 22.10076191887108 -36.528601836073264 0.5641110050950696 1 1 0
1791 1 23.571957088156168 -37.37937290861228 2.9100296380604997 1 1 0
1792 1 25.042728871681867 -34.82143914017374 2.9039000284387426 1 1 0
1793 1 25.042780488643473 -36.527992218134116 0.5643681629692852 1 1 0
1794 1 23.57172255210831 -33.97246510191902 0.5568821963744189 1 1 0
1797 1 26.51374645378324 -33.97241734539831 0.5570057252809054 1 1 0
1795 1 29.455837848884475 -37.377749864709344 2.911623763717733 1 1 0
1796 1 26.513811405703763 -37.37855712206303 2.9106112175861143 1 1 0
1798 1 27.984688323858776 -34.82111631473373 2.9042429585443035 1 1 0
1799 1 29.455995162328662 -33.97276120260609 0.557140221823089 1 1 0
1800 1 27.98497521842014 -36.527710799075265 0.5648912740602127 1 1 0
1802 1 30.92738015020689 -36.52772428604795 0.5657396208450242 1 1 0
1803 1 30.926884641613036 -34.82096468993428 2.9047855128628646 1 1 0
1804 1 32.39818042143666 -37.37711753002683 2.912940304620986 1 1 0
1805 1 33.8692744558437 -34.82086044484493 2.9056433456101862 1 1 0
1806 1 32.3984082115633 -33.97315676457152 0.5575703984520984 1 1 0
1807 1 33.86987239195998 -36.527801242044255 0.5668279902774271 1 1 0
43 1 2.979200407909287 -32.2646513291432 2.8968244907493577 1 1 0
64 1 2.97928701992164 -28.86327851798928 0.5357399653296027 1 1 0
1809 1 1.5079214556984784 -29.708336906857276 2.883423783591236 2 1 0
1810 1 1.50836361197258 -31.41845642956844 0.54783372973605 2 1 0
1823 1 0.03694305025372323 -32.26490476305474 2.895541037706728 2 1 0
1828 1 0.037067035222041085 -28.863417450588123 0.5343490961378123 2 1 0
46 1 4.450427544445971 -31.418105335380414 0.5491566227729512 1 1 0
47 1 4.450077596249678 -29.707927697085175 2.885053409111182 1 1 0
48 1 5.921286499744541 -32.26440165060557 2.897865866035918 1 1 0
49 1 7.392083030858862 -29.707648649904 2.8859377628797107 1 1 0
50 1 7.392203705785042 -31.417815473273553 0.5497344590460364 1 1 0
51 1 5.92121529253429 -28.862869066721196 0.5371558123175273 1 1 0
52 1 8.863169662011176 -32.26470073274414 2.897533948014905 1 1 0
53 1 11.804931066255861 -32.26539116294443 2.8960261012743604 1 1 0
54 1 10.333959577173404 -29.707967468341753 2.8850227776859763 1 1 0
55 1 10.3338534944039 -31.41792467944416 0.5488383219854042 1 1 0
56 1 11.80464325280433 -28.862488551726933 0.5361496093811668 1 1 0
75 1 8.862918595664862 -28.862603822418457 0.5372586721742009 1 1 0
57 1 13.275559107826071 -31.418040308244045 0.5474894171049106 1 1 0
59 1 13.275771481228064 -29.708246462760815 2.88358990972849 1 1 0
60 1 14.746647229985665 -32.26570483449398 2.8947352965749937 1 1 0
61 1 16.217541539381617 -29.708014950833114 2.88295121388102 1 1 0
62 1 16.217332080761395 -31.417771237908266 0.5467907565264905 1 1 0
81 1 14.746485167867064 -28.862147537101414 0.5352577522087238 1 1 0
44 1 19.159275373089216 -29.707448616966172 2.8831539244922175 1 1 0
45 1 19.15910765461828 -31.417202515308226 0.5468391757361019 1 1 0
58 1 17.688350772200327 -32.265445038637615 2.894302812534152 1 1 0
1808 1 20.630060911934113 -32.264878830176826 2.8944959701185944 1 1 0
1829 1 20.630147762315445 -28.86082706701848 0.5357291236868498 1 1 0
63 1 17.68835115770959 -28.8614811886398 0.5352509352318968 1 1 0
1811 1 22.100883284695602 -31.41670185365962 0.5471680138593136 1 1 0
1812 1 22.101011368666022 -29.70692940115911 2.883611370406146 1 1 0
1813 1 23.5718121083034 -32.26441440832981 2.894777269648436 1 1 0
1814 1 25.042811845466627 -29.706876714392532 2.883618900967866 1 1 0
1815 1 25.04273371622104 -31.416675733721313 0.5472281467200469 1 1 0
1816 1 23.571900343563204 -28.860613969279584 0.5359914265413299 1 1 0
1817 1 26.5136781706393 -32.2643483153666 2.8947786939785476 1 1 0
1818 1 29.455735771207994 -32.26461770989912 2.8946201636707887 1 1 0
1819 1 27.98474330960095 -29.707408302857026 2.8829672395485155 1 1 0
1820 1 27.98477112122729 -31.417227344734425 0.5468673645648165 1 1 0
1821 1 29.455787947335054 -28.86215847823572 0.5344234712170612 1 1 0
1840 1 26.513731831011405 -28.861130452011018 0.5354655310635551 1 1 0
1822 1 30.927036227620846 -31.417985235797392 0.5465389938222083 1 1 0
1824 1 30.92683998822108 -29.708099018397405 2.882275682359679 1 1 0
1825 1 32.3979771689975 -32.264887803369355 2.8947679278989735 1 1 0
1826 1 33.86904540588504 -29.708442951489065 2.8823477180146493 1 1 0
1827 1 33.869412912111464 -31.418458849318142 0.5468163874499067 1 1 0
1846 1 32.39806817453908 -28.86304809483671 0.5338517726488584 1 1 0
65 1 2.97893168582797 -27.14997858820273 2.869773470587162 1 1 0
1831 1 1.5078750689870384 -24.58771648515389 2.852693550492442 2 1 0
1832 1 1.5081114400371192 -26.30836912716894 0.5209402857669743 2 1 0
1833 1 0.03675235122040593 -27.15022075002748 2.868221429350558 2 1 0
69 1 4.449990596043047 -24.587373568272035 2.8545279241710433 1 1 0
70 1 4.450222700323245 -26.308144028129945 0.522611201742223 1 1 0
71 1 5.920975066289276 -27.149529584154177 2.871520380221802 1 1 0
72 1 7.391990615584962 -26.30777734960487 0.5236336067039925 1 1 0
73 1 7.391796185202126 -24.587064846550387 2.855721356996466 1 1 0
74 1 8.862840579914105 -27.149370941185715 2.871795872026344 1 1 0
76 1 11.804698150514763 -27.149453058717132 2.8706736701509423 1 1 0
77 1 10.333526502547322 -24.586792242666448 2.8557302250861687 1 1 0
78 1 10.33367054254947 -26.3074006249212 0.5234210866260952 1 1 0
79 1 13.27544336615861 -24.58653168259312 2.855126724848314 1 1 0
80 1 13.275521455202982 -26.30695754670144 0.522633667972035 1 1 0
82 1 14.746573368831662 -27.14922969417267 2.8698554592207546 1 1 0
84 1 16.217487182367666 -26.306229096938107 0.5225300627056717 1 1 0
83 1 16.217414762514746 -24.585929718345923 2.855288719712001 1 1 0
68 1 17.688424331408672 -27.14859564079044 2.870047132610102 1 1 0
66 1 19.159361894465974 -24.585086986926836 2.856275709351304 1 1 0
67 1 19.15940395928916 -26.305342677900125 0.5232045465581882 1 1 0
1830 1 20.630231781290572 -27.14796332152719 2.8707093823549115 1 1 0
1834 1 22.101240826601572 -24.584620505602686 2.8569890635992543 1 1 0
1835 1 22.101168140301052 -26.304803807136242 0.523780934210309 1 1 0
1836 1 23.572030208173505 -27.14773475796879 2.8710162897751923 1 1 0
1837 1 25.042846431708792 -26.305005630947083 0.5234787020925514 1 1 0
1838 1 25.043072350837228 -24.584852458319485 2.856565916057509 1 1 0
1839 1 26.513884301836114 -27.14825197060942 2.870240640989232 1 1 0
1841 1 29.455849654473138 -27.149282706431183 2.868741396740232 1 1 0
1842 1 27.984965911769123 -24.585945832980123 2.8545785188417043 1 1 0
1843 1 27.98467032400862 -26.306032264490877 0.5219906009568589 1 1 0
1844 1 30.926930222254356 -24.58711853921519 2.85246189488871 1 1 0
1845 1 30.926772591785536 -26.307280117101573 0.5204187033001317 1 1 0
1847 1 32.397932515941335 -27.150041639578664 2.8678133680260633 1 1 0
1849 1 33.86911052979729 -26.308109182112027 0.5200155828472153 1 1 0
1848 1 33.869029445295844 -24.587675636316813 2.8517974425012467 1 1 0
85 1 2.9790487417810105 -22.01510836874867 2.8352218897502 1 1 0
86 1 2.979184162872573 -23.754715211140557 0.5071639495659703 1 1 0
1852 1 1.5080171809141778 -21.206670910625387 0.49137923344043694 2 1 0
1863 1 0.03686388688725436 -23.75456849340079 0.5058949000401296 2 1 0
1865 1 0.03685224504755569 -22.015226542657118 2.8340369494314466 2 1 0
88 1 4.450186679482398 -21.206663831023707 0.4923642164336449 1 1 0
89 1 5.920920509501608 -22.014745138824317 2.836560709214513 1 1 0
90 1 7.392057524532143 -21.206326078229637 0.493467107898624 1 1 0
91 1 5.921117819610277 -23.754458316542195 0.5085422274229295 1 1 0
93 1 8.862801720099291 -23.754041171694663 0.5092402258397025 1 1 0
92 1 8.862567308814416 -22.014377623522964 2.837473869219334 1 1 0
94 1 11.804318370601282 -22.01400033735638 2.837959550668071 1 1 0
95 1 10.333837059194574 -21.205888696742047 0.4943276057221272 1 1 0
96 1 11.804568637208797 -23.753505437483046 0.5092729995241888 1 1 0
97 1 13.275722820817416 -21.205225471469078 0.495242210681 1 1 0
99 1 14.74632133227243 -22.013470907554098 2.838435498650409 1 1 0
101 1 16.217764357941846 -21.20436076618704 0.49632693745059414 1 1 0
102 1 14.746552013578114 -23.752775174262343 0.5093166084098223 1 1 0
98 1 17.68858773366188 -23.751804545687616 0.5101224494901414 1 1 0
100 1 17.6883704014186 -22.012649715230143 2.8396542352361887 1 1 0
87 1 19.159727159580672 -21.20324989860239 0.49782065144811843 1 1 0
1850 1 20.630326230039913 -22.011793770725554 2.8410863699570856 1 1 0
1851 1 20.63045349547025 -23.750851016679963 0.5112090274186231 1 1 0
1853 1 22.101364774753534 -21.202207101988503 0.4991743605816717 1 1 0
1854 1 23.572207531645674 -22.01158151145332 2.8414322020146083 1 1 0
1855 1 25.042720602254914 -21.20222045946352 0.4983560639365962 1 1 0
1856 1 23.572066349439975 -23.75051269557945 0.5114454100175132 1 1 0
1858 1 26.513648110527214 -23.75119378578612 0.5100108974140994 1 1 0
1857 1 26.51405747585244 -22.012454136393938 2.8396267796501924 1 1 0
1859 1 29.45598247753578 -22.013731667431994 2.8365709779648025 1 1 0
1860 1 27.984224894270668 -21.20321191846627 0.49573969040669263 1 1 0
1861 1 29.45551131862694 -23.7524994525595 0.5076182198870244 1 1 0
1862 1 30.926290076998686 -21.204681500262986 0.4928261457908065 1 1 0
1864 1 32.3980275247652 -22.01479308307178 2.8343131032345754 1 1 0
1866 1 33.86882458021804 -21.206052220148027 0.4911043633900926 1 1 0
1867 1 32.397758882710214 -23.753797969461946 0.505925363805439 1 1 0
103 1 1.5080394611928107 -19.42118356132207 2.812294113984133 1 0 0
104 1 2.9789842391187498 -16.780611995544962 2.7947578457422395 1 0 0
105 1 2.979051339057117 -18.67787450019947 0.4764045351267237 1 0 0
106 1 1.5077532530269175 -16.215742557753767 0.394498748536713 1 0 0
119 1 0.03666040955722825 -16.780928325795646 2.7952615424283436 1 0 0
120 1 0.03661509218270285 -18.677663908916976 0.4762999518618934 1 0 0
107 1 4.450027798960665 -19.420918672494864 2.8129285864325353 1 0 0
108 1 4.450241118794995 -16.215794765291744 0.3943432874022727 1 0 0
109 1 7.391844703932955 -19.42038943253674 2.8140648099954264 1 0 0
110 1 5.921332132731926 -16.780102324189656 2.795258774804132 1 0 0
111 1 5.9212596423626715 -18.67773123057363 0.47715582556523406 1 0 0
886 1 7.392584482938125 -16.215637585734754 0.3950789995209453 1 0 0
112 1 8.863291268719653 -18.67743405336296 0.4783468201992297 1 0 0
113 1 8.863644676537607 -16.779655179394407 2.7965751421041958 1 0 0
114 1 10.333597235899443 -19.4200813002735 2.8153118354188313 1 0 0
115 1 11.805843528217686 -16.779200073813456 2.7986554542715294 1 0 0
116 1 10.334761886827614 -16.215388748214508 0.3965908566343338 1 0 0
117 1 11.80525109549077 -18.677012170981847 0.4799628306541175 1 0 0
121 1 13.275419475927343 -19.41953230594893 2.8169706683751516 1 0 0
118 1 13.276652801000873 -16.214976924952 0.3985284969012093 1 0 0
1887 1 16.217441157838167 -19.41885668436845 2.818614153482927 1 0 0
1888 1 14.747594014610375 -16.778599520110493 2.8011068182438947 1 0 0
1889 1 16.218284386476853 -16.214380880705516 0.4008310718047672 1 0 0
1890 1 14.747138308933298 -18.676399336426908 0.4818471850650237 1 0 0
1885 1 17.68902554783341 -18.675516332200857 0.48368161111854174 1 0 0
1868 1 19.15937853464754 -19.41794146235867 2.820523035856363 1 0 0
1869 1 20.631522264030608 -16.77652776688564 2.8065292071973995 1 0 0
1870 1 20.630801584902034 -18.674163619781105 0.4860149835775686 1 0 0
1871 1 19.15990809535437 -16.213403469972363 0.4036465965366545 1 0 0
1884 1 17.68935643139949 -16.777910595163256 2.8034308712475426 1 0 0
1872 1 22.101265687740383 -19.416936130861306 2.8225629573297413 1 0 0
1873 1 22.101175244720775 -16.211723423995906 0.40580073489252405 1 0 0
1874 1 25.043071003987453 -19.417499299684557 2.8217178210445537 1 0 0
1875 1 23.57248956971466 -16.776167124485124 2.808169307911101 1 0 0
1876 1 23.57194483340268 -18.673188715392303 0.4869085729321861 1 0 0
2651 1 25.042138535196617 -16.210969332889327 0.40595451826234136 1 0 0
1877 1 26.51300827976854 -18.67344457994951 0.48501258337463066 1 0 0
1878 1 26.51285690132958 -16.777125271968305 2.806569977367086 1 0 0
1879 1 27.984840940703346 -19.41866020581053 2.8185977327844607 1 0 0
1880 1 29.453911604128894 -16.778445848580567 2.8026102521390905 1 0 0
1881 1 27.983442007336773 -16.211811134189578 0.4036545045898538 1 0 0
1882 1 29.45463823553914 -18.67479954009513 0.48152050594350626 1 0 0
1886 1 30.926909272736488 -19.41981031854861 2.81490574688404 1 0 0
122 1 33.869162277301484 -19.42094696960567 2.812365656929283 0 0 0
123 1 32.396607086602806 -16.779909231431674 2.7980894023454472 0 0 0
124 1 33.8683053200927 -16.215373609217842 0.3966238191550965 0 0 0
125 1 32.39709433337613 -18.676528953492404 0.4780382084068947 0 0 0
1883 1 30.925523399854544 -16.2137091226481 0.400092173030737 1 0 0
126 1 2.9784377707725143 -12.661016275770196 4.205471976507139 1 0 0
127 1 1.5063319170455307 -13.985241792401943 2.0891209612152095 1 0 0
139 1 0.035799018638149195 -12.661114156246137 4.20677347876309 1 0 0
129 1 2.97808862289759 -11.319251198491747 1.6822937660418036 1 0 0
143 1 0.03547739397282373 -11.318901005274787 1.684113998338364 1 0 0
128 1 4.449422302445588 -13.984975008055404 2.088400998147577 1 0 0
131 1 7.392427380461998 -13.984793708939637 2.0889296797869323 1 0 0
130 1 5.921109389858339 -12.660366049510971 4.204958388518561 1 0 0
133 1 5.920825796641865 -11.319070111563288 1.6815316471087223 1 0 0
132 1 8.863712448904277 -12.660094794659969 4.205962289576086 1 0 0
134 1 10.335251198834388 -13.985009928505779 2.0908951323669456 1 0 0
153 1 11.80583974831256 -11.31994187909854 1.6838934170520152 1 0 0
135 1 11.80605891563662 -12.660235815446685 4.20840308958888 1 0 0
138 1 8.86344270008285 -11.319259296241828 1.682122462201606 1 0 0
137 1 13.277874749509985 -13.985672036082423 2.094131601304102 1 0 0
1905 1 14.748104201506404 -12.660000710028603 4.211197663092001 1 0 0
1906 1 16.220223276010298 -13.98538563456084 2.0966559226592008 1 0 0
1909 1 14.747948356249612 -11.320391738720076 1.6859951502420951 1 0 0
1891 1 20.632119632654465 -12.658571039908233 4.216360144838135 1 0 0
1892 1 19.162390249923646 -13.984235523613608 2.098988526789658 1 0 0
1904 1 17.689936914182347 -12.6593259459178 4.213290238714074 1 0 0
1908 1 17.69005341559308 -11.320125443354307 1.6877567331444068 1 0 0
1894 1 20.632334388639407 -11.319988953214224 1.690843505062664 1 0 0
1893 1 22.104250978523414 -13.98506581007074 2.1048892977022495 1 0 0
1896 1 25.044289766290927 -13.986477941201864 2.108379933783638 1 0 0
1895 1 23.574691688577385 -12.659319775388791 4.22424845440512 1 0 0
1898 1 23.574119422102118 -11.321732624156914 1.6975380690754869 1 0 0
1897 1 26.51436113291238 -12.661056448398545 4.22658974705745 1 0 0
1899 1 27.983645197811576 -13.986326350593291 2.1049614622335233 1 0 0
1918 1 29.455117034257132 -11.320420466119662 1.695166605450607 1 0 0
1900 1 29.454125788442497 -12.660665590771771 4.219050776025814 1 0 0
1903 1 26.51475631759078 -11.322449173399177 1.7004942019668694 1 0 0
1902 1 30.924239895241907 -13.984509586810304 2.096348494369972 1 0 0
140 1 32.39673303768014 -12.66069794150204 4.209207867971163 0 0 0
141 1 33.866843319322385 -13.984076425394457 2.0899466365736425 0 0 0
144 1 32.39655034192913 -11.318411969478696 1.6873898136283745 0 0 0
145 1 2.9789168573913964 -7.616085645835874 3.772772948580112 1 0 0
146 1 1.5073066172984226 -10.145786214760962 3.9015454324034122 1 0 0
147 1 1.5073951543875619 -8.670208176675423 1.4754100012243134 1 0 0
159 1 0.03683780731239935 -7.61627296420147 3.7753450360876046 1 0 0
148 1 4.4496397354998845 -10.145528352237536 3.8999504889639276 1 0 0
149 1 4.449804930283246 -8.670118169976222 1.4736916526363928 1 0 0
150 1 5.92123120112378 -7.615734678470245 3.7714193868766146 1 0 0
151 1 7.392230206574563 -10.145300595079178 3.8998261954141538 1 0 0
152 1 7.392320752424504 -8.670079527493384 1.4733662841066248 1 0 0
154 1 8.863499936905642 -7.615352153433999 3.7716489857062814 1 0 0
155 1 10.334637424518615 -10.14509157737489 3.900574989072809 1 0 0
156 1 11.805321219167721 -7.614958804798456 3.772943226608233 1 0 0
157 1 10.334615787360686 -8.670209506007854 1.4740856089080656 1 0 0
160 1 13.27647747227145 -10.144909451131776 3.9021221821111665 1 0 0
158 1 13.276504719792138 -8.670487414476344 1.4754310169787443 1 0 0
1926 1 16.218203300801022 -10.144528349993472 3.903526080709484 1 0 0
1927 1 14.746854835204882 -7.614501408535922 3.773939302928743 1 0 0
1928 1 16.2182482575148 -8.670591873079747 1.4765038830763422 1 0 0
1910 1 20.630494203446617 -7.614325074600458 3.776436266308129 1 0 0
1911 1 19.16025590452598 -10.14402643604416 3.9051880460319772 1 0 0
1912 1 19.16022241442603 -8.670658310655813 1.4778405813589017 1 0 0
1924 1 17.68851159772426 -7.614166672467615 3.774467467302238 1 0 0
1913 1 22.102896777963576 -10.144054632488007 3.9099218899946924 1 0 0
1914 1 22.102344193649344 -8.671707871351527 1.4816976734293437 1 0 0
1915 1 23.57268212782567 -7.615411244124749 3.7814116270688407 1 0 0
1916 1 25.04489063595579 -10.144995332960637 3.9168305092506377 1 0 0
1917 1 25.04395722755687 -8.673442405901335 1.4872328882438894 1 0 0
1919 1 26.51471832275823 -7.616348777546834 3.7855353670651493 1 0 0
1920 1 27.985238391754805 -10.145560022155182 3.917285201143409 1 0 0
1921 1 29.456643631882006 -7.616800131603649 3.7843935593360696 1 0 0
1922 1 27.985081886862975 -8.673190643828368 1.488154947054929 1 0 0
1925 1 30.92636662170158 -10.145555083091764 3.910440316905577 1 0 0
161 1 33.868326985669825 -10.145799081978986 3.904802506595068 0 0 0
162 1 32.398382227751306 -7.616445093208889 3.779481848618016 0 0 0
163 1 33.868494598205615 -8.670303851793562 1.4785427093092964 0 0 0
1923 1 30.9264775462837 -8.671234749589848 1.483333919743566 1 0 0
164 1 2.979023280383819 -6.051575066396079 1.3952618418082832 1 0 0
165 1 1.5084757226655616 -5.078871653728173 3.728579754505862 1 0 0
166 1 1.5084251459172235 -3.4607335031258044 1.3663425719844982 1 0 0
181 1 0.03683386050914082 -6.051910010082262 1.3976409806954555 1 0 0
167 1 2.979860630219178 -2.533890216295091 3.7036158031409436 1 0 0
169 1 0.038025882701486304 -2.5343827946720348 3.705022176911859 1 0 0
168 1 4.4504202053801984 -5.078505225115551 3.7266500408940972 1 0 0
170 1 4.450425723942577 -3.4601957090658586 1.3648387387258014 1 0 0
171 1 7.392310156243333 -5.077931250073836 3.726060509129063 1 0 0
172 1 5.9212540848845965 -6.0512990111138265 1.393991248976511 1 0 0
173 1 7.3922779041568765 -3.4598159677242135 1.3641706096449553 1 0 0
174 1 5.921413034273462 -2.533181605790674 3.7025385605658436 1 0 0
175 1 8.863353182605419 -6.051176707586844 1.3941288344131657 1 0 0
176 1 10.33397260787656 -5.077443757555689 3.7268326116299484 1 0 0
177 1 10.334010564580607 -3.459754266184872 1.364329084896492 1 0 0
178 1 11.80518284732401 -6.0512580722213745 1.3950929527769398 1 0 0
188 1 8.862892417309242 -2.5325095158763387 3.7021242746270517 1 0 0
193 1 11.8045603465034 -2.532107752975904 3.7018608358157503 1 0 0
179 1 13.275567394602481 -5.07700363970671 3.727526170768856 1 0 0
180 1 13.275743523691952 -3.45985370519918 1.364371490320858 1 0 0
1947 1 16.217343969968898 -5.076765583097627 3.727580257614042 1 0 0
1948 1 16.217578039572917 -3.460012365829252 1.3641382775557318 1 0 0
1949 1 14.746888639631427 -6.051376267972077 1.3957142168668133 1 0 0
1962 1 14.746472711919102 -2.5318753325864667 3.7013222975819526 1 0 0
1946 1 17.688731421292246 -6.051529299651877 1.3959904865991053 1 0 0
1929 1 20.63078527146318 -6.052196073414574 1.397599870821041 1 0 0
1930 1 19.15916543935026 -5.076877804361706 3.728072703519081 1 0 0
1931 1 19.15947432191969 -3.4604346256896967 1.3645562960221431 1 0 0
1932 1 20.62998172302469 -2.532459077663993 3.7023576317767475 1 0 0
1934 1 17.688262847781317 -2.5318807111856234 3.7012977980091604 1 0 0
1933 1 22.101141551295385 -5.077743555266344 3.73060864941899 1 0 0
1935 1 22.101440264427975 -3.4616203135687207 1.3667133842238584 1 0 0
1936 1 25.04320949270903 -5.079241360611249 3.734517726967475 1 0 0
1937 1 23.57275344182591 -6.053820003250516 1.4015587037134893 1 0 0
1938 1 25.043245100388653 -3.46317746277297 1.3699066373002236 1 0 0
1939 1 23.5718488238513 -2.534264486978604 3.705355903515427 1 0 0
1940 1 26.514350927484323 -6.054910811822249 1.4049142211927157 1 0 0
1941 1 27.98559165772591 -5.079946903349944 3.7360836751620465 1 0 0
1942 1 27.985067446855453 -3.4636418437702954 1.3712975535773995 1 0 0
1943 1 29.4560270319072 -6.054221593509424 1.4045014767479922 1 0 0
1953 1 26.514001799646724 -2.535809483447153 3.7077267623328014 1 0 0
1958 1 29.45645594702005 -2.5358403881099623 3.7077371117222673 1 0 0
182 1 33.86995667980075 -5.079134721016811 3.7314052619195586 0 0 0
183 1 33.86958048412057 -3.4615236812944947 1.368325268428219 0 0 0
184 1 32.398047877229985 -6.052719823471243 1.401028272218627 0 0 0
1944 1 30.927930188389972 -5.0796056358357555 3.7344594225916836 1 0 0
1945 1 30.92723087582336 -3.462728716321971 1.3703386612432822 1 0 0
197 1 32.399080610795664 -2.5349820497427267 3.70644744068221 0 0 0
185 1 1.509139215643587 0.016663110124814876 3.6799284606053217 1 0 0
186 1 2.9798345180575847 -0.8855016526062551 1.3434111870196999 1 0 0
198 1 0.0377126589475099 -0.8863169750749014 1.3440601833713517 1 0 0
203 1 1.5091582483847032 1.681519293975138 1.3184006325581628 1 0 0
187 1 4.450842728281318 0.017465190498997526 3.679607746836429 1 0 0
189 1 4.451141088189859 1.6823833599168754 1.3184415512050853 1 0 0
190 1 7.392313631412469 0.018400333649409257 3.678504096049732 1 0 0
191 1 5.921586960142607 -0.884823160669412 1.3425535263438033 1 0 0
192 1 7.392812496250765 1.6832126673567274 1.3172994728865208 1 0 0
194 1 8.863227968853732 -0.8844252041719847 1.3416832177981914 1 0 0
195 1 10.33400778096281 0.019108474307079636 3.6770036056983595 1 0 0
196 1 11.804926139756875 -0.8843415455566903 1.3407997556081646 1 0 0
213 1 10.334470291487055 1.6838027654795404 1.3155727918527393 1 0 0
199 1 13.275860926105198 0.01948648383607894 3.67574071835504 1 0 0
219 1 13.276066374043417 1.6840782094855178 1.3142071814040153 1 0 0
1965 1 16.21749270026281 0.01964977154015393 3.6753504699714856 1 0 0
1966 1 14.746675961859266 -0.884383966979895 1.34003189824425 1 0 0
1967 1 16.2174888687364 1.6840602236043987 1.3137220973990675 1 0 0
1950 1 19.159052313296865 0.019317272508537514 3.67574309894666 1 0 0
1951 1 20.630110300573808 -0.8854456241532689 1.34094145483746 1 0 0
1963 1 17.688368979584798 -0.8846290329415799 1.339979643790542 1 0 0
1968 1 19.15892252804375 1.6835176396624314 1.3139689766027143 1 0 0
1952 1 22.100719035769906 0.01789840589738892 3.677376481859713 1 0 0
1954 1 22.100514490835483 1.682142390602314 1.3152426658652494 1 0 0
1955 1 25.042599178370676 0.015912957881955073 3.6795613445908453 1 0 0
1956 1 23.571910150898848 -0.8870675547633968 1.3433539430180663 1 0 0
1957 1 25.042290249825967 1.6804337165096026 1.3169763800204433 1 0 0
1959 1 26.513770583593356 -0.888349798791047 1.3452885979800084 1 0 0
1960 1 27.984746401327946 0.014883133399809149 3.68045979695859 1 0 0
1961 1 29.45593017130814 -0.8883196584760725 1.3454020995456777 1 0 0
1978 1 27.98439147192138 1.6795253551930358 1.3177761324787216 1 0 0
1964 1 30.927271168396764 0.015148829375202049 3.679980157858446 1 0 0
1984 1 30.926987800382065 1.6797762210040363 1.3175610231550094 1 0 0
200 1 33.870106361882456 0.01596908792864783 3.67972678389093 0 0 0
201 1 32.398510712396934 -0.8873377916342309 1.3446676496873888 0 0 0
202 1 33.86991270132103 1.6806422075047454 1.3177114336848856 0 0 0
204 1 2.980154091752089 2.5711912887822024 3.653481754553624 1 0 0
205 1 1.5090791430147958 5.12664830785194 3.6242166167186767 1 0 0
206 1 2.9806668050706353 4.2468296034851525 1.291215355533178 1 0 0
208 1 0.03811324234808928 4.246011294009631 1.2898487323385455 1 0 0
209 1 0.03783432774419805 2.5704390831357986 3.6522126929997833 1 0 0
207 1 4.451432099365578 5.127616256907918 3.625309443260477 1 0 0
210 1 5.921920722345134 2.5722968434407356 3.653019431396589 1 0 0
211 1 7.393358541708287 5.129395053068185 3.6236776304136145 1 0 0
212 1 5.922601149205184 4.247905265812023 1.2908469911558784 1 0 0
214 1 8.86367907337042 2.5735931326727823 3.650910302874464 1 0 0
215 1 8.864306598485179 4.249155752939915 1.2889040798537503 1 0 0
216 1 11.805456420053563 2.5745103741163384 3.648913068779409 1 0 0
217 1 10.335154084299907 5.131160057444305 3.6212538469476727 1 0 0
218 1 11.805835824275121 4.2501088037449115 1.2870603045393332 1 0 0
220 1 13.276526839005461 5.132201806774002 3.6200115032654785 1 0 0
1986 1 14.746871043426383 2.5749363068256943 3.648063649069499 1 0 0
1987 1 16.21763531228024 5.132529960645404 3.6192770358844544 1 0 0
1988 1 14.746994854682878 4.2505382728319345 1.286143920996883 1 0 0
1969 1 20.629673117670958 2.573892154390342 3.648471135395034 1 0 0
1970 1 19.158756700340128 5.132000501771689 3.6190089168567323 1 0 0
1971 1 20.629194969157897 4.249289602102684 1.2860478435436669 1 0 0
1973 1 17.68802262274151 4.250345389015992 1.2857480677687636 1 0 0
1974 1 17.688211525772882 2.5748640137852905 3.647860272379668 1 0 0