LAMMPS data file via write_data, version 29 Sep 2021, timestep = 24863000

3530 atoms
2 atom types

-0.061682576324292526 35.4883989562291 xlo xhi
-41.896771742888106 41.896771742888106 ylo yhi
-0.0463534775615651 27.11405294640351 zlo zhi

Masses

1 107.8682
2 58.6934

Atoms # atomic

3 1 3.1462811468023872 -38.86942355398763 0.7272867580638507 1 1 0
1766 1 1.5944491177225757 -39.71853034274678 2.9145930164587757 2 1 0
1767 1 1.6508339103853302 -41.3697053120037 0.47804453022413096 2 1 0
1769 1 0.054198597186143616 -38.925725450976685 0.5857861287630042 2 1 0
5 1 4.505071257018372 -39.98216330120555 3.0797561539324136 1 1 0
6 1 4.5851495335462715 -41.36013432854683 0.38131047061878026 1 1 0
7 1 7.3851305830486424 -39.88084951978448 3.0604993563707517 1 1 0
8 1 5.971155474580456 -39.00319028329878 0.7497178130292251 1 1 0
9 1 7.358608388565166 -41.6087599378034 0.2733620430316882 1 1 0
10 1 9.035033868855535 -38.89836043980659 0.4310854717033023 1 1 0
11 1 10.274593131843922 -39.86737729339589 2.9626173486925946 1 1 0
12 1 10.271462889205822 -41.5161843225371 0.22998340926283165 1 1 0
13 1 11.708992123776575 -39.03783629930358 0.6334375261749992 1 1 0
15 1 13.128200988631875 -39.935599102149354 2.850884773940003 1 1 0
14 1 13.319483898955042 -41.66226690578655 0.487885234072 1 1 0
16 1 16.368914325150783 -39.911651081419535 2.9690123855445174 1 1 0
17 1 16.313254210995865 -41.631075503289125 0.6413796555164125 1 1 0
18 1 14.866916913900752 -38.97189596917126 0.576578829235494 1 1 0
1 1 19.36948988399928 -39.71853034274678 2.9145930164587757 1 1 0
2 1 19.425874676662026 -41.3697053120037 0.47804453022413096 1 1 0
4 1 17.829239363462847 -38.925725450976685 0.5857861287630042 1 1 0
1768 1 20.921321913079083 -38.86942355398763 0.7272867580638507 1 1 0
1770 1 22.280112023295068 -39.98216330120555 3.0797561539324136 1 1 0
1771 1 22.360190299822968 -41.36013432854683 0.38131047061878026 1 1 0
1772 1 25.16017134932534 -39.88084951978448 3.0604993563707517 1 1 0
1773 1 23.746196240857152 -39.00319028329878 0.7497178130292251 1 1 0
1774 1 25.133649154841862 -41.6087599378034 0.2733620430316882 1 1 0
1775 1 26.81007463513223 -38.89836043980659 0.4310854717033023 1 1 0
1776 1 28.049633898120618 -39.86737729339589 2.9626173486925946 1 1 0
1777 1 28.046503655482518 -41.5161843225371 0.22998340926283165 1 1 0
1778 1 29.48403289005327 -39.03783629930358 0.6334375261749992 1 1 0
1780 1 30.903241754908564 -39.935599102149354 2.850884773940003 1 1 0
1779 1 31.09452466523173 -41.66226690578655 0.487885234072 1 1 0
1781 1 34.143955091427486 -39.911651081419535 2.9690123855445174 1 1 0
1782 1 34.088294977272554 -41.631075503289125 0.6413796555164125 1 1 0
1783 1 32.64195768017744 -38.97189596917126 0.576578829235494 1 1 0
19 1 2.8302851109591245 -37.33878122074141 2.90485392808339 1 1 0
22 1 2.845322902630265 -33.862494502862965 0.6958814402674943 1 1 0
25 1 4.341666271568016 -34.69854975721797 3.194587595992547 1 1 0
1785 1 1.5406533704673961 -34.93439208777716 3.1953839339373857 2 1 0
1786 1 1.6619117364682836 -36.282436219637404 0.5545797780481742 2 1 0
1788 1 -0.001393038946417846 -37.21523521063744 3.113255859215285 2 1 0
1801 1 0.006768580054142603 -33.76384284435128 0.6830802256052543 2 1 0
24 1 4.589840244842399 -36.44402247610447 0.7127950409785647 1 1 0
26 1 5.924394215022694 -37.305481921284475 3.0687537651229655 1 1 0
27 1 7.2394205799081845 -34.64317838975832 2.8965532904366214 1 1 0
28 1 7.446963559762622 -36.37074168720026 0.5814906127463364 1 1 0
29 1 5.805057318687503 -33.935570863681185 0.4433933033745776 1 1 0
32 1 8.716007830661596 -33.86940025110849 0.4023045941447387 1 1 0
30 1 11.843447545431516 -37.258682016621826 2.9030547108144993 1 1 0
31 1 8.868862629064779 -37.32480303954853 3.034147764072933 1 1 0
33 1 10.222809725432796 -34.76230100145672 2.947908993443404 1 1 0
34 1 11.938399817830167 -33.852230671187826 0.5213230663814327 1 1 0
35 1 10.32247900442362 -36.26923936064838 0.5705586763201645 1 1 0
37 1 13.240677443631576 -36.529882914175786 0.5528799539415313 1 1 0
38 1 13.278870358346971 -34.65250383011252 3.03349556442457 1 1 0
39 1 14.930246070715278 -36.9529285133676 2.8422195825419494 1 1 0
40 1 16.25857163737686 -34.47370082020953 2.9773280801870254 1 1 0
41 1 14.802489326648427 -33.93445433630984 0.5982288152457952 1 1 0
42 1 16.420619423735886 -36.6817456746244 0.368915971653943 1 1 0
20 1 19.315694136744085 -34.93439208777716 3.1953839339373857 1 1 0
21 1 19.436952502744973 -36.282436219637404 0.5545797780481742 1 1 0
23 1 17.77364772733027 -37.21523521063744 3.113255859215285 1 1 0
36 1 17.781809346330846 -33.76384284435128 0.6830802256052543 1 1 0
1784 1 20.60532587723582 -37.33878122074141 2.90485392808339 1 1 0
1787 1 20.62036366890696 -33.862494502862965 0.6958814402674943 1 1 0
1790 1 22.116707037844712 -34.69854975721797 3.194587595992547 1 1 0
1789 1 22.364881011119095 -36.44402247610447 0.7127950409785647 1 1 0
1791 1 23.69943498129939 -37.305481921284475 3.0687537651229655 1 1 0
1792 1 25.01446134618488 -34.64317838975832 2.8965532904366214 1 1 0
1793 1 25.22200432603932 -36.37074168720026 0.5814906127463364 1 1 0
1794 1 23.5800980849642 -33.935570863681185 0.4433933033745776 1 1 0
1797 1 26.491048596938292 -33.86940025110849 0.4023045941447387 1 1 0
1795 1 29.61848831170822 -37.258682016621826 2.9030547108144993 1 1 0
1796 1 26.643903395341475 -37.32480303954853 3.034147764072933 1 1 0
1798 1 27.997850491709492 -34.76230100145672 2.947908993443404 1 1 0
1799 1 29.713440584106863 -33.852230671187826 0.5213230663814327 1 1 0
1800 1 28.097519770700316 -36.26923936064838 0.5705586763201645 1 1 0
1802 1 31.01571820990827 -36.529882914175786 0.5528799539415313 1 1 0
1803 1 31.053911124623667 -34.65250383011252 3.03349556442457 1 1 0
1804 1 32.705286836991974 -36.9529285133676 2.8422195825419494 1 1 0
1805 1 34.03361240365355 -34.47370082020953 2.9773280801870254 1 1 0
1806 1 32.57753009292513 -33.93445433630984 0.5982288152457952 1 1 0
1807 1 34.19566019001259 -36.6817456746244 0.368915971653943 1 1 0
43 1 2.960659853253887 -32.04861056522786 3.0189901673455 1 1 0
46 1 4.335407939872077 -31.412533216866052 0.38534153507087193 1 1 0
47 1 4.350082937811223 -29.441865335457457 3.023852620081341 1 1 0
64 1 3.1181709714600814 -28.870150100955996 0.448869367778415 1 1 0
1809 1 1.54191896520463 -29.43211055898493 2.8462875862850017 2 1 0
1810 1 1.401620741401345 -31.071328064028265 0.46462900899756326 2 1 0
1823 1 0.05869274191653062 -32.01463065930405 3.1612995905413563 2 1 0
48 1 5.786362030375713 -32.049849250056376 3.066823237428753 1 1 0
49 1 7.381970866459781 -29.578775643103434 3.14867255954161 1 1 0
50 1 7.272852924294533 -31.29207170309627 0.5296970572267728 1 1 0
51 1 5.908900021338781 -28.73637818767667 0.5443440576938243 1 1 0
52 1 8.721192646573222 -32.07758211332455 2.9306707220071977 1 1 0
53 1 11.710632491034431 -32.02673497956353 2.9831130503530625 1 1 0
54 1 10.520244974567362 -29.50136623876312 3.0672085787566177 1 1 0
55 1 10.40150504552571 -31.436970297738313 0.7745873135716063 1 1 0
57 1 13.339360533234405 -31.38252055281474 0.7604124710975979 1 1 0
59 1 13.46076142510779 -29.750599932996565 3.0998923039974837 1 1 0
60 1 14.967801596867119 -32.094481433747234 3.1935420520044664 1 1 0
61 1 16.283456360989554 -29.509362168686152 2.8284955479715554 1 1 0
62 1 16.313178833408912 -31.47489232345623 0.5057108538590446 1 1 0
81 1 14.72979750947286 -28.820833337715158 0.5613552373881445 1 1 0
44 1 19.316959731481326 -29.43211055898493 2.8462875862850017 1 1 0
45 1 19.17666150767804 -31.071328064028265 0.46462900899756326 1 1 0
58 1 17.83373350819322 -32.01463065930405 3.1612995905413563 1 1 0
1808 1 20.735700619530583 -32.04861056522786 3.0189901673455 1 1 0
1811 1 22.110448706148773 -31.412533216866052 0.38534153507087193 1 1 0
1812 1 22.12512370408792 -29.441865335457457 3.023852620081341 1 1 0
1829 1 20.893211737736777 -28.870150100955996 0.448869367778415 1 1 0
1813 1 23.56140279665241 -32.049849250056376 3.066823237428753 1 1 0
1814 1 25.157011632736477 -29.578775643103434 3.14867255954161 1 1 0
1815 1 25.04789369057123 -31.29207170309627 0.5296970572267728 1 1 0
1816 1 23.683940787615477 -28.73637818767667 0.5443440576938243 1 1 0
1817 1 26.496233412849918 -32.07758211332455 2.9306707220071977 1 1 0
1818 1 29.48567325731112 -32.02673497956353 2.9831130503530625 1 1 0
1819 1 28.295285740844058 -29.50136623876312 3.0672085787566177 1 1 0
1820 1 28.176545811802406 -31.436970297738313 0.7745873135716063 1 1 0
1822 1 31.1144012995111 -31.38252055281474 0.7604124710975979 1 1 0
1824 1 31.23580219138448 -29.750599932996565 3.0998923039974837 1 1 0
1825 1 32.74284236314382 -32.094481433747234 3.1935420520044664 1 1 0
1826 1 34.05849712726625 -29.509362168686152 2.8284955479715554 1 1 0
1827 1 34.088219599685615 -31.47489232345623 0.5057108538590446 1 1 0
1846 1 32.50483827574955 -28.820833337715158 0.5613552373881445 1 1 0
65 1 2.9310028849682226 -26.872287595264623 2.9289847594460743 1 1 0
1828 1 -0.017671948997815434 -28.66516714403516 0.6553363481321521 2 1 0
1831 1 1.5889114654704315 -24.462455478557743 3.214312353334341 2 1 0
1832 1 1.4024564356035256 -26.099088474620828 0.47437969047022677 2 1 0
69 1 4.578907819861271 -24.2761518246531 2.8991192111835593 1 1 0
70 1 4.402812686324808 -26.214041773299684 0.4192593040022833 1 1 0
71 1 5.837614316988763 -26.97180991257553 2.7531974860001327 1 1 0
72 1 7.569730523884033 -26.03981158200665 0.5045310131016338 1 1 0
73 1 7.3225595175650895 -24.405350920673513 3.120246198014497 1 1 0
56 1 11.837697030150537 -28.50470729424285 0.8184666502204782 1 1 0
74 1 9.20225510293097 -27.09667486576248 3.1181948938044157 1 1 0
75 1 8.857840766841306 -28.64889146458887 0.7481936120846908 1 1 0
76 1 12.050407282026036 -26.999872172520867 3.167329625997053 1 1 0
77 1 10.21989945310326 -24.396566539146107 3.0008175525136354 1 1 0
78 1 10.433678121544197 -26.267484031958347 0.7241897013532564 1 1 0
68 1 17.70371813345566 -26.917983675404066 2.7899550756710862 1 1 0
79 1 13.356964267977453 -24.479685303193733 2.849858767718763 1 1 0
80 1 13.304740425916826 -26.17769270060073 0.5010774282083182 1 1 0
82 1 14.730554811841927 -26.93997178542648 3.067525559375527 1 1 0
84 1 16.172469942730878 -26.085533440433743 0.7436818442410075 1 1 0
63 1 17.757368817278874 -28.66516714403516 0.6553363481321521 1 1 0
66 1 19.36395223174712 -24.462455478557743 3.214312353334341 1 1 0
67 1 19.17749720188022 -26.099088474620828 0.47437969047022677 1 1 0
1830 1 20.70604365124492 -26.872287595264623 2.9289847594460743 1 1 0
1834 1 22.353948586137967 -24.2761518246531 2.8991192111835593 1 1 0
1835 1 22.177853452601504 -26.214041773299684 0.4192593040022833 1 1 0
1836 1 23.61265508326546 -26.97180991257553 2.7531974860001327 1 1 0
1837 1 25.34477129016073 -26.03981158200665 0.5045310131016338 1 1 0
1838 1 25.097600283841786 -24.405350920673513 3.120246198014497 1 1 0
1821 1 29.612737796427226 -28.50470729424285 0.8184666502204782 1 1 0
1839 1 26.977295869207666 -27.09667486576248 3.1181948938044157 1 1 0
1840 1 26.632881533118002 -28.64889146458887 0.7481936120846908 1 1 0
1841 1 29.825448048302732 -26.999872172520867 3.167329625997053 1 1 0
1842 1 27.994940219379956 -24.396566539146107 3.0008175525136354 1 1 0
1843 1 28.208718887820893 -26.267484031958347 0.7241897013532564 1 1 0
1833 1 35.478758899732355 -26.917983675404066 2.7899550756710862 1 1 0
1844 1 31.13200503425415 -24.479685303193733 2.849858767718763 1 1 0
1845 1 31.079781192193522 -26.17769270060073 0.5010774282083182 1 1 0
1847 1 32.505595578118616 -26.93997178542648 3.067525559375527 1 1 0
1849 1 33.947510709007574 -26.085533440433743 0.7436818442410075 1 1 0
85 1 2.9722112273664294 -21.72839573603543 2.9525755556708235 1 1 0
86 1 2.8339740668411224 -23.48962907068089 0.4420746803661122 1 1 0
88 1 4.361760250118138 -20.735032465760867 0.5908612938154583 1 1 0
1852 1 1.5105759145535131 -20.873137033838617 0.4047991573978258 2 1 0
89 1 5.852172659004182 -21.78818144218257 3.038805913757725 1 1 0
90 1 7.230171712883397 -21.161588524631867 0.5264481238248281 1 1 0
91 1 5.83728282192029 -23.75430020355624 0.6048809956715225 1 1 0
93 1 8.779698578508302 -23.499647181701974 0.5078330506002101 1 1 0
92 1 8.829054279169924 -21.68919985440064 2.8916930193123904 1 1 0
94 1 11.722390012252653 -21.62444449710017 2.876340653426954 1 1 0
95 1 10.236062391568197 -21.073175909956603 0.4969370498660161 1 1 0
96 1 11.692986554215068 -23.346051141738464 0.5859136633901744 1 1 0
97 1 13.253050782875476 -20.798771916992173 0.3845715524367917 1 1 0
83 1 16.27245316534895 -24.05076081843979 3.1599756716639757 1 1 0
98 1 17.70451697714983 -23.673175496718983 0.8458753052223077 1 1 0
99 1 14.558720960245758 -21.841500823045756 2.939691462960724 1 1 0
100 1 17.688192648887387 -21.748423247219066 3.0159937712668063 1 1 0
101 1 16.244898803883444 -20.7925378576749 0.4569307630710143 1 1 0
102 1 14.498697635274262 -23.360403998505802 0.5553182226709624 1 1 0
87 1 19.28561668083021 -20.873137033838617 0.4047991573978258 1 1 0
1850 1 20.747251993643125 -21.72839573603543 2.9525755556708235 1 1 0
1851 1 20.60901483311782 -23.48962907068089 0.4420746803661122 1 1 0
1853 1 22.136801016394834 -20.735032465760867 0.5908612938154583 1 1 0
1854 1 23.62721342528088 -21.78818144218257 3.038805913757725 1 1 0
1855 1 25.005212479160093 -21.161588524631867 0.5264481238248281 1 1 0
1856 1 23.612323588196986 -23.75430020355624 0.6048809956715225 1 1 0
1858 1 26.554739344785 -23.499647181701974 0.5078330506002101 1 1 0
1857 1 26.60409504544662 -21.68919985440064 2.8916930193123904 1 1 0
1859 1 29.49743077852935 -21.62444449710017 2.876340653426954 1 1 0
1860 1 28.011103157844893 -21.073175909956603 0.4969370498660161 1 1 0
1861 1 29.46802732049177 -23.346051141738464 0.5859136633901744 1 1 0
1862 1 31.028091549152165 -20.798771916992173 0.3845715524367917 1 1 0
1848 1 34.04749393162565 -24.05076081843979 3.1599756716639757 1 1 0
1863 1 35.479557743426525 -23.673175496718983 0.8458753052223077 1 1 0
1864 1 32.333761726522454 -21.841500823045756 2.939691462960724 1 1 0
1865 1 35.46323341516408 -21.748423247219066 3.0159937712668063 1 1 0
1866 1 34.01993957016013 -20.7925378576749 0.4569307630710143 1 1 0
1867 1 32.27373840155096 -23.360403998505802 0.5553182226709624 1 1 0
103 1 1.3285701044977927 -19.310002104692618 2.934719047588769 1 0 0
104 1 2.825875654656855 -16.386208631492632 2.753300061352797 1 0 0
105 1 2.678390276936632 -18.266970563757056 0.7033374839932645 1 0 0
106 1 1.28741817281702 -15.839180648529464 0.22808183750232183 1 0 0
107 1 4.317664395137932 -19.020027194431925 3.1168243029045137 1 0 0
108 1 4.130188908853995 -15.74653203316126 0.31236514533167303 1 0 0
119 1 0.033770462205382046 -16.359861008361246 2.8470424661890483 1 0 0
109 1 7.4223990401185915 -19.174277273867123 2.9031559892401293 1 0 0
110 1 5.778473339420202 -16.515637840876057 3.0183502281066548 1 0 0
111 1 5.830868035696298 -18.32118130188731 0.4966866972335898 1 0 0
112 1 8.608483138260553 -18.40062827651617 0.6341308632080538 1 0 0
886 1 6.985940175415692 -15.878638142606961 0.3862572117717882 1 0 0
113 1 8.860832438338356 -16.706862309680687 2.927506853158051 1 0 0
114 1 10.275721010848088 -19.318102712240016 2.7264913272793354 1 0 0
115 1 11.641249178175336 -16.445195818184 2.7959481427031294 1 0 0
116 1 10.092383089184487 -15.835352412687925 0.42824033988782484 1 0 0
117 1 11.640360796404948 -18.156451023391718 0.41357578029869907 1 0 0
121 1 13.201065623339055 -19.38497694145193 3.020656535175948 1 0 0
118 1 13.434473036063423 -15.759022971951309 0.3521229805293558 1 0 0
1885 1 17.469137145191077 -18.154420424229126 0.6602605640276534 1 0 0
1887 1 16.0809943217901 -18.995259276774323 2.8241047016192993 1 0 0
1888 1 14.772316934650483 -16.310669449931332 2.8729430845977633 1 0 0
1889 1 16.185641809252893 -15.832439793376821 0.16306336013109796 1 0 0
1890 1 14.643923882626744 -18.260604835183422 0.4486058109513688 1 0 0
1868 1 19.10361087077449 -19.310002104692618 2.934719047588769 1 0 0
1869 1 20.60091642093355 -16.386208631492632 2.753300061352797 1 0 0
1870 1 20.453431043213328 -18.266970563757056 0.7033374839932645 1 0 0
1871 1 19.062458939093716 -15.839180648529464 0.22808183750232183 1 0 0
1872 1 22.092705161414628 -19.020027194431925 3.1168243029045137 1 0 0
1873 1 21.90522967513069 -15.74653203316126 0.31236514533167303 1 0 0
1884 1 17.808811228482078 -16.359861008361246 2.8470424661890483 1 0 0
1874 1 25.197439806395288 -19.174277273867123 2.9031559892401293 1 0 0
1875 1 23.553514105696898 -16.515637840876057 3.0183502281066548 1 0 0
1876 1 23.605908801972994 -18.32118130188731 0.4966866972335898 1 0 0
1877 1 26.38352390453725 -18.40062827651617 0.6341308632080538 1 0 0
2651 1 24.760980941692388 -15.878638142606961 0.3862572117717882 1 0 0
1878 1 26.635873204615052 -16.706862309680687 2.927506853158051 1 0 0
1879 1 28.050761777124784 -19.318102712240016 2.7264913272793354 1 0 0
1880 1 29.416289944452032 -16.445195818184 2.7959481427031294 1 0 0
1881 1 27.867423855461183 -15.835352412687925 0.42824033988782484 1 0 0
1882 1 29.41540156268165 -18.156451023391718 0.41357578029869907 1 0 0
1886 1 30.97610638961575 -19.38497694145193 3.020656535175948 1 0 0
120 1 35.24417791146777 -18.154420424229126 0.6602605640276534 0 0 0
122 1 33.8560350880668 -18.995259276774323 2.8241047016192993 0 0 0
123 1 32.54735770092718 -16.310669449931332 2.8729430845977633 0 0 0
124 1 33.96068257552959 -15.832439793376821 0.16306336013109796 0 0 0
125 1 32.41896464890344 -18.260604835183422 0.4486058109513688 0 0 0
1883 1 31.209513802340112 -15.759022971951309 0.3521229805293558 1 0 0
126 1 3.1081499004836246 -12.29371902278365 4.176095503922672 1 0 0
127 1 1.3914138274198251 -13.619057244361427 2.165260071458109 1 0 0
139 1 0.12432320173476796 -12.361069852864679 4.29652212650784 1 0 0
128 1 4.465474635034482 -13.95360767268504 2.4248795839974715 1 0 0
131 1 7.390175130054416 -13.705905618399484 2.212141861872309 1 0 0
132 1 8.675844944688485 -12.233062932699603 4.3744914972069715 1 0 0
130 1 5.974767059076228 -12.34967485668959 4.390577268934682 1 0 0
134 1 10.24021291888657 -13.572211751888524 2.180513695633815 1 0 0
137 1 13.030740183990012 -13.880834090464987 2.4690762746209844 1 0 0
153 1 11.81711453030325 -11.338563502125828 1.859082986466248 1 0 0
135 1 11.706631001989223 -12.18401469625095 4.374993841720352 1 0 0
1905 1 14.880469189055432 -12.493126217786024 4.218447708639809 1 0 0
1906 1 16.301985866035785 -13.85090522024848 2.2392118244899706 1 0 0
1891 1 20.88319066676032 -12.29371902278365 4.176095503922672 1 0 0
1892 1 19.16645459369652 -13.619057244361427 2.165260071458109 1 0 0
1904 1 17.899363968011464 -12.361069852864679 4.29652212650784 1 0 0
1893 1 22.24051540131118 -13.95360767268504 2.4248795839974715 1 0 0
1896 1 25.165215896331112 -13.705905618399484 2.212141861872309 1 0 0
1897 1 26.45088571096518 -12.233062932699603 4.3744914972069715 1 0 0
1895 1 23.749807825352924 -12.34967485668959 4.390577268934682 1 0 0
1899 1 28.015253685163266 -13.572211751888524 2.180513695633815 1 0 0
1902 1 30.80578095026671 -13.880834090464987 2.4690762746209844 1 0 0
1918 1 29.592155296579946 -11.338563502125828 1.859082986466248 1 0 0
1900 1 29.48167176826591 -12.18401469625095 4.374993841720352 1 0 0
140 1 32.65550995533213 -12.493126217786024 4.218447708639809 0 0 0
141 1 34.07702663231248 -13.85090522024848 2.2392118244899706 0 0 0
129 1 2.5407391080823274 -10.953608910263027 1.5530341815588393 1 0 0
145 1 3.0618141600952526 -7.086999092748975 3.4701153949371393 1 0 0
146 1 1.3419242647110963 -9.601216588495477 3.82192671815177 1 0 0
147 1 1.3319139140772407 -8.18046991013972 1.3494523599974186 1 0 0
148 1 4.266814802731076 -9.845675624469708 3.9756472545093398 1 0 0
149 1 4.2956307137644245 -8.305276123537256 1.209367053465109 1 0 0
159 1 0.0002714452543983725 -7.141466635646899 3.5538335113774187 1 0 0
133 1 5.42935143435723 -10.87137447833787 1.705974634117341 1 0 0
138 1 8.630487557286884 -10.906218483274355 1.8204783991312778 1 0 0
150 1 5.655270121045923 -7.274077913109926 3.571429104679987 1 0 0
151 1 6.944417423191382 -9.74437037664544 4.1426710574304115 1 0 0
152 1 7.235514435890693 -8.485715523027684 1.3944722184321228 1 0 0
154 1 8.738692286398887 -7.542893345762583 3.684329854443816 1 0 0
155 1 10.277356634059714 -9.829061284986555 3.803944724282705 1 0 0
156 1 11.688510754018345 -7.170936136107241 3.55482042325164 1 0 0
157 1 10.090723517624298 -8.21983037654948 1.3548465810130437 1 0 0
160 1 12.927665333893614 -9.835054171861694 3.907290926737785 1 0 0
158 1 13.27130397048721 -8.334027894927942 1.3968663005195647 1 0 0
1908 1 17.612291111738543 -10.777358452685723 1.8192026852242138 1 0 0
1909 1 14.695148590946033 -10.843543734702921 1.798858722574859 1 0 0
1926 1 16.12755824999057 -9.620146415867294 3.897407753116795 1 0 0
1927 1 14.53857142606526 -7.192625471044288 3.6836081802194935 1 0 0
1928 1 16.111373807002835 -8.257829321989838 1.4839636069794384 1 0 0
1894 1 20.315779874359023 -10.953608910263027 1.5530341815588393 1 0 0
1910 1 20.83685492637195 -7.086999092748975 3.4701153949371393 1 0 0
1911 1 19.116965030987792 -9.601216588495477 3.82192671815177 1 0 0
1912 1 19.106954680353937 -8.18046991013972 1.3494523599974186 1 0 0
1913 1 22.041855569007772 -9.845675624469708 3.9756472545093398 1 0 0
1914 1 22.07067148004112 -8.305276123537256 1.209367053465109 1 0 0
1924 1 17.775312211531094 -7.141466635646899 3.5538335113774187 1 0 0
1898 1 23.204392200633926 -10.87137447833787 1.705974634117341 1 0 0
1903 1 26.40552832356358 -10.906218483274355 1.8204783991312778 1 0 0
1915 1 23.43031088732262 -7.274077913109926 3.571429104679987 1 0 0
1916 1 24.719458189468078 -9.74437037664544 4.1426710574304115 1 0 0
1917 1 25.01055520216739 -8.485715523027684 1.3944722184321228 1 0 0
1919 1 26.513733052675583 -7.542893345762583 3.684329854443816 1 0 0
1920 1 28.05239740033641 -9.829061284986555 3.803944724282705 1 0 0
1921 1 29.46355152029504 -7.170936136107241 3.55482042325164 1 0 0
1922 1 27.865764283900994 -8.21983037654948 1.3548465810130437 1 0 0
1925 1 30.702706100170317 -9.835054171861694 3.907290926737785 1 0 0
143 1 35.38733187801524 -10.777358452685723 1.8192026852242138 0 0 0
144 1 32.47018935722273 -10.843543734702921 1.798858722574859 0 0 0
161 1 33.90259901626727 -9.620146415867294 3.897407753116795 0 0 0
162 1 32.31361219234196 -7.192625471044288 3.6836081802194935 0 0 0
163 1 33.88641457327953 -8.257829321989838 1.4839636069794384 0 0 0
1923 1 31.046344736763913 -8.334027894927942 1.3968663005195647 1 0 0
164 1 2.9782026162435358 -5.442515429493099 1.0832549338412112 1 0 0
165 1 1.4670444842284098 -4.666467212380317 3.3844836539617167 1 0 0
166 1 1.4907187679297706 -3.0112913874764766 0.9419717868010334 1 0 0
168 1 4.526871913026682 -4.3984490233075215 3.541686629971596 1 0 0
170 1 4.442066174068209 -3.0807465419374513 0.9964172837202556 1 0 0
171 1 7.430101999185446 -4.71499198395887 3.559752677884509 1 0 0
172 1 5.714517395467908 -5.627737788575805 1.1893488705737538 1 0 0
173 1 7.301699314973703 -3.092362768062246 1.0471266902371814 1 0 0
175 1 8.910906795622758 -5.841862771083501 1.1867950615289873 1 0 0
176 1 10.331902770505955 -4.6373038148843095 3.63929263897259 1 0 0
177 1 10.436144719467777 -3.204433891838887 1.164473365829317 1 0 0
178 1 11.655547089358201 -5.589167371441245 1.2153161315084158 1 0 0
188 1 8.934117070350958 -2.2478865644190846 3.215679181846641 1 0 0
179 1 13.461500348744742 -4.571847439213425 3.2845908581777503 1 0 0
180 1 13.377471501803626 -2.8288919341077814 0.9854122485406758 1 0 0
1946 1 17.48856454123125 -5.656399908600608 0.84253621808281 1 0 0
1947 1 16.229644149575783 -4.695778068715359 3.3540747080980995 1 0 0
1948 1 16.11680703992159 -2.9447746756646893 1.134416927677863 1 0 0
1949 1 14.607756879754966 -5.628525863547955 1.0510350212977115 1 0 0
1929 1 20.753243382520232 -5.442515429493099 1.0832549338412112 1 0 0
1930 1 19.242085250505106 -4.666467212380317 3.3844836539617167 1 0 0
1931 1 19.265759534206467 -3.0112913874764766 0.9419717868010334 1 0 0
1933 1 22.301912679303378 -4.3984490233075215 3.541686629971596 1 0 0
1935 1 22.217106940344905 -3.0807465419374513 0.9964172837202556 1 0 0
1936 1 25.205142765462142 -4.71499198395887 3.559752677884509 1 0 0
1937 1 23.489558161744604 -5.627737788575805 1.1893488705737538 1 0 0
1938 1 25.0767400812504 -3.092362768062246 1.0471266902371814 1 0 0
1940 1 26.685947561899454 -5.841862771083501 1.1867950615289873 1 0 0
1941 1 28.10694353678265 -4.6373038148843095 3.63929263897259 1 0 0
1942 1 28.211185485744473 -3.204433891838887 1.164473365829317 1 0 0
1943 1 29.430587855634897 -5.589167371441245 1.2153161315084158 1 0 0
1953 1 26.709157836627654 -2.2478865644190846 3.215679181846641 1 0 0
181 1 35.263605307507945 -5.656399908600608 0.84253621808281 0 0 0
182 1 34.00468491585248 -4.695778068715359 3.3540747080980995 0 0 0
183 1 33.891847806198285 -2.9447746756646893 1.134416927677863 0 0 0
184 1 32.38279764603166 -5.628525863547955 1.0510350212977115 0 0 0
1944 1 31.23654111502144 -4.571847439213425 3.2845908581777503 1 0 0
1945 1 31.152512268080315 -2.8288919341077814 0.9854122485406758 1 0 0
167 1 3.03342804851696 -1.8513778182224558 3.4550670485461352 1 0 0
169 1 0.02088386590824598 -2.090564661803073 3.2759464741607967 1 0 0
185 1 1.6018708050955226 0.27712517762196487 3.275625610232516 1 0 0
186 1 3.1685200561261553 -0.5177238487854363 1.0280985975451584 1 0 0
198 1 0.38041831345861965 -0.5309319110623896 0.7473172954269219 1 0 0
203 1 1.440296284028662 2.0087473388572183 0.9931475813588101 1 0 0
174 1 6.015362588076485 -2.1021760387974786 3.4276798437646487 1 0 0
187 1 4.545517666030264 0.3824182746920963 3.4043807247009696 1 0 0
189 1 4.486649386875271 2.090069359103002 1.1083120227428938 1 0 0
190 1 7.394099123131035 0.3657774199010271 3.230647853923311 1 0 0
191 1 5.806988991395841 -0.7655384450281685 0.8023287836933286 1 0 0
192 1 7.298451665810404 2.1745558816129726 0.6522385257632592 1 0 0
194 1 8.544653386662823 -0.41930378331560036 0.8492161086708377 1 0 0
193 1 11.953161482545205 -2.022527282153986 3.5102501466699936 1 0 0
195 1 10.253822069269319 0.486554835691747 3.5194139252807535 1 0 0
196 1 11.752742445091172 -0.40530092640286114 0.8464993490544261 1 0 0
199 1 13.210858464532485 0.3808793917374612 3.406087545239585 1 0 0
213 1 10.330505329211618 1.95730172593353 0.8615269767420474 1 0 0
219 1 13.219976163654763 2.1768330607386384 0.9313217014591177 1 0 0
1962 1 14.676546697234194 -2.0399335302314143 3.485782130312253 1 0 0
1965 1 16.276872229966763 0.44138259855766865 3.3054937601319674 1 0 0
1966 1 14.831089599924411 -0.28026109993797205 0.9841510683427552 1 0 0
1932 1 20.808468814793656 -1.8513778182224558 3.4550670485461352 1 0 0
1934 1 17.795924632184942 -2.090564661803073 3.2759464741607967 1 0 0
1950 1 19.37691157137222 0.27712517762196487 3.275625610232516 1 0 0
1951 1 20.94356082240285 -0.5177238487854363 1.0280985975451584 1 0 0
1963 1 18.155459079735316 -0.5309319110623896 0.7473172954269219 1 0 0
1968 1 19.215337050305358 2.0087473388572183 0.9931475813588101 1 0 0
1939 1 23.79040335435318 -2.1021760387974786 3.4276798437646487 1 0 0
1952 1 22.32055843230696 0.3824182746920963 3.4043807247009696 1 0 0
1954 1 22.261690153151967 2.090069359103002 1.1083120227428938 1 0 0
1955 1 25.16913988940773 0.3657774199010271 3.230647853923311 1 0 0
1956 1 23.582029757672537 -0.7655384450281685 0.8023287836933286 1 0 0
1957 1 25.0734924320871 2.1745558816129726 0.6522385257632592 1 0 0
1959 1 26.31969415293952 -0.41930378331560036 0.8492161086708377 1 0 0
1958 1 29.7282022488219 -2.022527282153986 3.5102501466699936 1 0 0
1960 1 28.028862835546015 0.486554835691747 3.5194139252807535 1 0 0
1961 1 29.52778321136786 -0.40530092640286114 0.8464993490544261 1 0 0
1964 1 30.98589923080918 0.3808793917374612 3.406087545239585 1 0 0
1978 1 28.105546095488315 1.95730172593353 0.8615269767420474 1 0 0
1984 1 30.995016929931452 2.1768330607386384 0.9313217014591177 1 0 0
197 1 32.45158746351089 -2.0399335302314143 3.485782130312253 0 0 0
200 1 34.05191299624346 0.44138259855766865 3.3054937601319674 0 0 0
201 1 32.60613036620111 -0.28026109993797205 0.9841510683427552 0 0 0
204 1 2.868083908109469 2.888942433652354 3.474066849632392 1 0 0
205 1 1.4371140732387317 5.4666662654771265 3.5451165522078534 1 0 0
206 1 2.742828334802141 4.645391814254887 1.1976110388932375 1 0 0
208 1 -0.0061866054726777975 4.615180755882472 1.0384350756061849 1 0 0
209 1 0.047575544597826536 2.932889352869956 3.429827738420266 1 0 0
207 1 4.507943844485752 5.617960620623531 3.250763670085561 1 0 0
210 1 5.966247872799229 2.8808124376064925 3.30669145488752 1 0 0
211 1 7.470007042771414 5.646563682686601 3.1637384304318075 1 0 0
212 1 5.715839759779016 4.77149002450071 0.7544611211878756 1 0 0
214 1 9.011067220347194 3.0930219283159244 3.2493518040865292 1 0 0
215 1 8.857715219863302 4.646084063842132 0.8989334369993094 1 0 0
216 1 11.795186017408653 2.853346737083127 3.214583723879212 1 0 0
217 1 10.424389975894506 5.542774545764672 3.218855288507974 1 0 0
218 1 11.739912380682235 4.676781992856892 0.5017752053431763 1 0 0
220 1 13.180789706126887 5.51711500593369 3.18908538175567 1 0 0
1967 1 16.187640993911224 2.292822150233998 1.031753938364501 1 0 0
1986 1 14.613930949688232 2.8201181273636964 3.2263838304528836 1 0 0
1987 1 16.28859464852963 5.388841087819422 3.410565153301422 1 0 0
1988 1 14.764542669361653 4.520616728204348 0.8250655572837453 1 0 0
1969 1 20.643124674386165 2.888942433652354 3.474066849632392 1 0 0
1970 1 19.212154839515428 5.4666662654771265 3.5451165522078534 1 0 0
1971 1 20.517869101078837 4.645391814254887 1.1976110388932375 1 0 0
1973 1 17.76885416080402 4.615180755882472 1.0384350756061849 1 0 0
1974 1 17.822616310874523 2.932889352869956 3.429827738420266 1 0 0
1972 1 22.282984610762448 5.617960620623531 3.250763670085561 1 0 0