LAMMPS data file via write_data, version 29 Sep 2021, timestep = 1000000

1765 atoms
2 atom types

-0.061682576324292526 17.7133581899524 xlo xhi
-41.896771742888106 41.896771742888106 ylo yhi
-0.0463534775615651 22.11405294640351 zlo zhi

Masses

1 107.8682
2 107.8682

Atoms # atomic

1 1 1.5944491177225828 -39.71853034274678 2.9145930164587757 3 1 0
2 1 1.6508339103853302 -41.3697053120037 0.47804453022413096 3 1 0
3 1 3.1462811468023872 -38.86942355398763 0.7272867580638507 2 1 0
4 1 0.05419859718615072 -38.925725450976685 0.5857861287630042 3 1 0
5 1 4.505071257018372 -39.98216330120555 3.0797561539324136 2 1 0
6 1 4.5851495335462715 -41.36013432854683 0.38131047061878026 2 1 0
7 1 7.3851305830486424 -39.88084951978448 3.0604993563707517 2 1 0
8 1 5.971155474580456 -39.00319028329878 0.7497178130292251 2 1 0
9 1 7.358608388565166 -41.6087599378034 0.2733620430316882 2 1 0
10 1 9.035033868855535 -38.89836043980659 0.4310854717033023 2 1 0
11 1 10.274593131843922 -39.86737729339589 2.9626173486925946 2 1 0
12 1 10.271462889205822 -41.5161843225371 0.22998340926283165 2 1 0
13 1 11.708992123776575 -39.03783629930358 0.6334375261749992 2 1 0
15 1 13.128200988631875 -39.935599102149354 2.850884773940003 2 1 0
14 1 13.319483898955042 -41.66226690578655 0.487885234072 2 1 0
16 1 16.368914325150783 -39.911651081419535 2.9690123855445174 2 1 0
17 1 16.313254210995865 -41.631075503289125 0.6413796555164125 2 1 0
18 1 14.866916913900752 -38.97189596917126 0.576578829235494 2 1 0
19 1 2.8302851109591245 -37.33878122074141 2.90485392808339 2 1 0
20 1 1.540653370467389 -34.93439208777716 3.1953839339373857 3 1 0
21 1 1.6619117364682765 -36.282436219637404 0.5545797780481742 3 1 0
22 1 2.845322902630265 -33.862494502862965 0.6958814402674943 2 1 0
23 1 -0.0013930389464249515 -37.21523521063744 3.113255859215285 3 1 0
25 1 4.341666271568016 -34.69854975721797 3.194587595992547 2 1 0
36 1 0.006768580054149709 -33.76384284435128 0.6830802256052543 3 1 0
24 1 4.589840244842399 -36.44402247610447 0.7127950409785647 2 1 0
26 1 5.924394215022694 -37.305481921284475 3.0687537651229655 2 1 0
27 1 7.2394205799081845 -34.64317838975832 2.8965532904366214 2 1 0
28 1 7.446963559762622 -36.37074168720026 0.5814906127463364 2 1 0
29 1 5.805057318687503 -33.935570863681185 0.4433933033745776 2 1 0
32 1 8.716007830661596 -33.86940025110849 0.4023045941447387 2 1 0
30 1 11.843447545431516 -37.258682016621826 2.9030547108144993 2 1 0
31 1 8.868862629064779 -37.32480303954853 3.034147764072933 2 1 0
33 1 10.222809725432796 -34.76230100145672 2.947908993443404 2 1 0
34 1 11.938399817830167 -33.852230671187826 0.5213230663814327 2 1 0
35 1 10.32247900442362 -36.26923936064838 0.5705586763201645 2 1 0
37 1 13.240677443631576 -36.529882914175786 0.5528799539415313 2 1 0
38 1 13.278870358346971 -34.65250383011252 3.03349556442457 2 1 0
39 1 14.930246070715278 -36.9529285133676 2.8422195825419494 2 1 0
40 1 16.25857163737686 -34.47370082020953 2.9773280801870254 2 1 0
41 1 14.802489326648427 -33.93445433630984 0.5982288152457952 2 1 0
42 1 16.420619423735886 -36.6817456746244 0.368915971653943 2 1 0
43 1 2.960659853253887 -32.04861056522786 3.0189901673455 2 1 0
44 1 1.54191896520463 -29.43211055898493 2.8462875862850017 3 1 0
45 1 1.401620741401345 -31.071328064028265 0.46462900899756326 3 1 0
46 1 4.335407939872077 -31.412533216866052 0.38534153507087193 2 1 0
47 1 4.350082937811223 -29.441865335457457 3.023852620081341 2 1 0
58 1 0.058692741916523516 -32.01463065930405 3.1612995905413563 3 1 0
64 1 3.1181709714600814 -28.870150100955996 0.448869367778415 2 1 0
48 1 5.786362030375713 -32.049849250056376 3.066823237428753 2 1 0
49 1 7.381970866459781 -29.578775643103434 3.14867255954161 2 1 0
50 1 7.272852924294533 -31.29207170309627 0.5296970572267728 2 1 0
51 1 5.908900021338781 -28.73637818767667 0.5443440576938243 2 1 0
52 1 8.721192646573222 -32.07758211332455 2.9306707220071977 2 1 0
53 1 11.710632491034431 -32.02673497956353 2.9831130503530625 2 1 0
54 1 10.520244974567362 -29.50136623876312 3.0672085787566177 2 1 0
55 1 10.40150504552571 -31.436970297738313 0.7745873135716063 2 1 0
57 1 13.339360533234405 -31.38252055281474 0.7604124710975979 2 1 0
59 1 13.46076142510779 -29.750599932996565 3.0998923039974837 2 1 0
60 1 14.967801596867119 -32.094481433747234 3.1935420520044664 2 1 0
61 1 16.283456360989554 -29.509362168686152 2.8284955479715554 2 1 0
62 1 16.313178833408912 -31.47489232345623 0.5057108538590446 2 1 0
81 1 14.72979750947286 -28.820833337715158 0.5613552373881445 2 1 0
63 1 -0.01767194899782254 -28.66516714403516 0.6553363481321521 3 1 0
65 1 2.9310028849682226 -26.872287595264623 2.9289847594460743 2 1 0
66 1 1.5889114654704244 -24.462455478557743 3.214312353334341 3 1 0
67 1 1.4024564356035256 -26.099088474620828 0.47437969047022677 3 1 0
69 1 4.578907819861271 -24.2761518246531 2.8991192111835593 2 1 0
70 1 4.402812686324808 -26.214041773299684 0.4192593040022833 2 1 0
71 1 5.837614316988763 -26.97180991257553 2.7531974860001327 2 1 0
72 1 7.569730523884033 -26.03981158200665 0.5045310131016338 2 1 0
73 1 7.3225595175650895 -24.405350920673513 3.120246198014497 2 1 0
56 1 11.837697030150537 -28.50470729424285 0.8184666502204782 2 1 0
74 1 9.20225510293097 -27.09667486576248 3.1181948938044157 2 1 0
75 1 8.857840766841306 -28.64889146458887 0.7481936120846908 2 1 0
76 1 12.050407282026036 -26.999872172520867 3.167329625997053 2 1 0
77 1 10.21989945310326 -24.396566539146107 3.0008175525136354 2 1 0
78 1 10.433678121544197 -26.267484031958347 0.7241897013532564 2 1 0
68 1 17.70371813345566 -26.917983675404066 2.7899550756710862 2 1 0
79 1 13.356964267977453 -24.479685303193733 2.849858767718763 2 1 0
80 1 13.304740425916826 -26.17769270060073 0.5010774282083182 2 1 0
82 1 14.730554811841927 -26.93997178542648 3.067525559375527 2 1 0
84 1 16.172469942730878 -26.085533440433743 0.7436818442410075 2 1 0
85 1 2.9722112273664294 -21.72839573603543 2.9525755556708235 2 1 0
86 1 2.8339740668411224 -23.48962907068089 0.4420746803661122 2 1 0
87 1 1.5105759145535131 -20.873137033838617 0.4047991573978258 3 1 0
88 1 4.361760250118138 -20.735032465760867 0.5908612938154583 2 1 0
89 1 5.852172659004182 -21.78818144218257 3.038805913757725 2 1 0
90 1 7.230171712883397 -21.161588524631867 0.5264481238248281 2 1 0
91 1 5.83728282192029 -23.75430020355624 0.6048809956715225 2 1 0
93 1 8.779698578508302 -23.499647181701974 0.5078330506002101 2 1 0
92 1 8.829054279169924 -21.68919985440064 2.8916930193123904 2 1 0
94 1 11.722390012252653 -21.62444449710017 2.876340653426954 2 1 0
95 1 10.236062391568197 -21.073175909956603 0.4969370498660161 2 1 0
96 1 11.692986554215068 -23.346051141738464 0.5859136633901744 2 1 0
97 1 13.253050782875476 -20.798771916992173 0.3845715524367917 2 1 0
83 1 16.27245316534895 -24.05076081843979 3.1599756716639757 2 1 0
98 1 17.70451697714983 -23.673175496718983 0.8458753052223077 2 1 0
99 1 14.558720960245758 -21.841500823045756 2.939691462960724 2 1 0
100 1 17.688192648887387 -21.748423247219066 3.0159937712668063 2 1 0
101 1 16.244898803883444 -20.7925378576749 0.4569307630710143 2 1 0
102 1 14.498697635274262 -23.360403998505802 0.5553182226709624 2 1 0
103 2 1.3285701044977927 -19.310002104692618 2.934719047588769 2 0 0
104 2 2.825875654656855 -16.386208631492632 2.753300061352797 2 0 0
105 2 2.678390276936632 -18.266970563757056 0.7033374839932645 2 0 0
106 2 1.28741817281702 -15.839180648529464 0.22808183750232183 2 0 0
107 2 4.317664395137932 -19.020027194431925 3.1168243029045137 2 0 0
108 2 4.130188908853995 -15.74653203316126 0.31236514533167303 2 0 0
119 2 0.033770462205382046 -16.359861008361246 2.8470424661890483 2 0 0
109 2 7.4223990401185915 -19.174277273867123 2.9031559892401293 2 0 0
110 2 5.778473339420202 -16.515637840876057 3.0183502281066548 2 0 0
111 2 5.830868035696298 -18.32118130188731 0.4966866972335898 2 0 0
112 2 8.608483138260553 -18.40062827651617 0.6341308632080538 2 0 0
886 2 6.985940175415692 -15.878638142606961 0.3862572117717882 2 0 0
113 2 8.860832438338356 -16.706862309680687 2.927506853158051 2 0 0
114 2 10.275721010848088 -19.318102712240016 2.7264913272793354 2 0 0
115 2 11.641249178175336 -16.445195818184 2.7959481427031294 2 0 0
116 2 10.092383089184487 -15.835352412687925 0.42824033988782484 2 0 0
117 2 11.640360796404948 -18.156451023391718 0.41357578029869907 2 0 0
121 2 13.201065623339055 -19.38497694145193 3.020656535175948 2 0 0
118 2 13.434473036063423 -15.759022971951309 0.3521229805293558 2 0 0
120 2 17.469137145191077 -18.154420424229126 0.6602605640276534 1 0 0
122 2 16.0809943217901 -18.995259276774323 2.8241047016192993 1 0 0
123 2 14.772316934650483 -16.310669449931332 2.8729430845977633 1 0 0
124 2 16.185641809252893 -15.832439793376821 0.16306336013109796 1 0 0
125 2 14.643923882626744 -18.260604835183422 0.4486058109513688 1 0 0
126 2 3.1081499004836246 -12.29371902278365 4.176095503922672 2 0 0
127 2 1.3914138274198251 -13.619057244361427 2.165260071458109 2 0 0
139 2 0.12432320173476796 -12.361069852864679 4.29652212650784 2 0 0
128 2 4.465474635034482 -13.95360767268504 2.4248795839974715 2 0 0
131 2 7.390175130054416 -13.705905618399484 2.212141861872309 2 0 0
134 2 10.24021291888657 -13.572211751888524 2.180513695633815 2 0 0
137 2 13.030740183990012 -13.880834090464987 2.4690762746209844 2 0 0
153 2 11.81711453030325 -11.338563502125828 1.859082986466248 2 0 0
140 2 14.880469189055432 -12.493126217786024 4.218447708639809 1 0 0
141 2 16.301985866035785 -13.85090522024848 2.2392118244899706 1 0 0
129 2 2.5407391080823274 -10.953608910263027 1.5530341815588393 2 0 0
145 2 3.0618141600952526 -7.086999092748975 3.4701153949371393 2 0 0
146 2 1.3419242647110963 -9.601216588495477 3.82192671815177 2 0 0
147 2 1.3319139140772407 -8.18046991013972 1.3494523599974186 2 0 0
148 2 4.266814802731076 -9.845675624469708 3.9756472545093398 2 0 0
149 2 4.2956307137644245 -8.305276123537256 1.209367053465109 2 0 0
159 2 0.0002714452543983725 -7.141466635646899 3.5538335113774187 2 0 0
133 2 5.42935143435723 -10.87137447833787 1.705974634117341 2 0 0
138 2 8.630487557286884 -10.906218483274355 1.8204783991312778 2 0 0
150 2 5.655270121045923 -7.274077913109926 3.571429104679987 2 0 0
151 2 6.944417423191382 -9.74437037664544 4.1426710574304115 2 0 0
152 2 7.235514435890693 -8.485715523027684 1.3944722184321228 2 0 0
154 2 8.738692286398887 -7.542893345762583 3.684329854443816 2 0 0
155 2 10.277356634059714 -9.829061284986555 3.803944724282705 2 0 0
156 2 11.688510754018345 -7.170936136107241 3.55482042325164 2 0 0
157 2 10.090723517624298 -8.21983037654948 1.3548465810130437 2 0 0
160 2 12.927665333893614 -9.835054171861694 3.907290926737785 2 0 0
143 2 17.612291111738543 -10.777358452685723 1.8192026852242138 1 0 0
144 2 14.695148590946033 -10.843543734702921 1.798858722574859 1 0 0
158 2 13.27130397048721 -8.334027894927942 1.3968663005195647 2 0 0
161 2 16.12755824999057 -9.620146415867294 3.897407753116795 1 0 0
162 2 14.53857142606526 -7.192625471044288 3.6836081802194935 1 0 0
163 2 16.111373807002835 -8.257829321989838 1.4839636069794384 1 0 0
164 2 2.9782026162435358 -5.442515429493099 1.0832549338412112 2 0 0
165 2 1.4670444842284098 -4.666467212380317 3.3844836539617167 2 0 0
166 2 1.4907187679297706 -3.0112913874764766 0.9419717868010334 2 0 0
168 2 4.526871913026682 -4.3984490233075215 3.541686629971596 2 0 0
170 2 4.442066174068209 -3.0807465419374513 0.9964172837202556 2 0 0
171 2 7.430101999185446 -4.71499198395887 3.559752677884509 2 0 0
172 2 5.714517395467908 -5.627737788575805 1.1893488705737538 2 0 0
173 2 7.301699314973703 -3.092362768062246 1.0471266902371814 2 0 0
175 2 8.910906795622758 -5.841862771083501 1.1867950615289873 2 0 0
176 2 10.331902770505955 -4.6373038148843095 3.63929263897259 2 0 0
177 2 10.436144719467777 -3.204433891838887 1.164473365829317 2 0 0
178 2 11.655547089358201 -5.589167371441245 1.2153161315084158 2 0 0
188 2 8.934117070350958 -2.2478865644190846 3.215679181846641 2 0 0
179 2 13.461500348744742 -4.571847439213425 3.2845908581777503 2 0 0
180 2 13.377471501803626 -2.8288919341077814 0.9854122485406758 2 0 0
181 2 17.48856454123125 -5.656399908600608 0.84253621808281 1 0 0
182 2 16.229644149575783 -4.695778068715359 3.3540747080980995 1 0 0
183 2 16.11680703992159 -2.9447746756646893 1.134416927677863 1 0 0
184 2 14.607756879754966 -5.628525863547955 1.0510350212977115 1 0 0
167 2 3.03342804851696 -1.8513778182224558 3.4550670485461352 2 0 0
169 2 0.02088386590824598 -2.090564661803073 3.2759464741607967 2 0 0
185 2 1.6018708050955226 0.27712517762196487 3.275625610232516 2 0 0
186 2 3.1685200561261553 -0.5177238487854363 1.0280985975451584 2 0 0
198 2 0.38041831345861965 -0.5309319110623896 0.7473172954269219 2 0 0
203 2 1.440296284028662 2.0087473388572183 0.9931475813588101 2 0 0
174 2 6.015362588076485 -2.1021760387974786 3.4276798437646487 2 0 0
187 2 4.545517666030264 0.3824182746920963 3.4043807247009696 2 0 0
189 2 4.486649386875271 2.090069359103002 1.1083120227428938 2 0 0
190 2 7.394099123131035 0.3657774199010271 3.230647853923311 2 0 0
191 2 5.806988991395841 -0.7655384450281685 0.8023287836933286 2 0 0
192 2 7.298451665810404 2.1745558816129726 0.6522385257632592 2 0 0
194 2 8.544653386662823 -0.41930378331560036 0.8492161086708377 2 0 0
193 2 11.953161482545205 -2.022527282153986 3.5102501466699936 2 0 0
195 2 10.253822069269319 0.486554835691747 3.5194139252807535 2 0 0
196 2 11.752742445091172 -0.40530092640286114 0.8464993490544261 2 0 0
199 2 13.210858464532485 0.3808793917374612 3.406087545239585 2 0 0
213 2 10.330505329211618 1.95730172593353 0.8615269767420474 2 0 0
219 2 13.219976163654763 2.1768330607386384 0.9313217014591177 2 0 0
197 2 14.676546697234194 -2.0399335302314143 3.485782130312253 1 0 0
200 2 16.276872229966763 0.44138259855766865 3.3054937601319674 1 0 0
201 2 14.831089599924411 -0.28026109993797205 0.9841510683427552 1 0 0
204 2 2.868083908109469 2.888942433652354 3.474066849632392 2 0 0
205 2 1.4371140732387317 5.4666662654771265 3.5451165522078534 2 0 0
206 2 2.742828334802141 4.645391814254887 1.1976110388932375 2 0 0
208 2 -0.0061866054726777975 4.615180755882472 1.0384350756061849 2 0 0
209 2 0.047575544597826536 2.932889352869956 3.429827738420266 2 0 0
207 2 4.507943844485752 5.617960620623531 3.250763670085561 2 0 0
210 2 5.966247872799229 2.8808124376064925 3.30669145488752 2 0 0
211 2 7.470007042771414 5.646563682686601 3.1637384304318075 2 0 0
212 2 5.715839759779016 4.77149002450071 0.7544611211878756 2 0 0
214 2 9.011067220347194 3.0930219283159244 3.2493518040865292 2 0 0
215 2 8.857715219863302 4.646084063842132 0.8989334369993094 2 0 0
216 2 11.795186017408653 2.853346737083127 3.214583723879212 2 0 0
217 2 10.424389975894506 5.542774545764672 3.218855288507974 2 0 0
218 2 11.739912380682235 4.676781992856892 0.5017752053431763 2 0 0
220 2 13.180789706126887 5.51711500593369 3.18908538175567 2 0 0
202 2 16.187640993911224 2.292822150233998 1.031753938364501 1 0 0
221 2 14.613930949688232 2.8201181273636964 3.2263838304528836 1 0 0
222 2 16.28859464852963 5.388841087819422 3.410565153301422 1 0 0
223 2 14.764542669361653 4.520616728204348 0.8250655572837453 1 0 0
224 2 1.393082290036908 7.284250439616177 0.5755311816831822 2 0 0
225 2 3.0561238708715663 8.088768313555487 3.4606753217996773 2 0 0
226 2 1.4549696870574422 10.606201423589503 3.4885431653731103 2 0 0
227 2 3.059508969408107 9.874743719867665 0.9181142474668669 2 0 0
228 2 -0.05954363400208962 8.062641627873637 3.3713954721442234 2 0 0
230 2 4.2765895841916475 10.686773991732405 3.3386692264250373 2 0 0
231 2 4.096812138098258 7.289139017080428 0.8986037057159001 2 0 0
232 2 7.141003211024987 7.246445485483541 0.8389923546384325 2 0 0
233 2 5.934469886568699 8.152444708325907 3.3635611550350326 2 0 0
234 2 7.398960520841214 10.578721045490086 3.408445348368319 2 0 0
235 2 5.9781171133389535 9.64271743414554 1.0629112379389256 2 0 0
236 2 8.894518022706379 7.984587161732057 3.2530852825326173 2 0 0
237 2 8.988911773313703 9.62863181947616 0.8220168285083619 2 0 0
238 2 10.522361019482375 7.2584077435865995 0.6995734583021591 2 0 0
239 2 10.327550284567323 10.799158937468375 3.1274193095470344 2 0 0
240 2 11.896145608301097 8.140524957616956 3.2151522769860934 2 0 0
241 2 12.014567503584281 9.766919926576314 0.934455940435837 2 0 0
243 2 13.238519011702046 10.590723935918906 3.4377616431562155 2 0 0
229 2 17.69675986347751 9.805927890117115 1.0982129961331022 1 0 0
242 2 13.443046782221813 7.19837374878658 0.8281035661785644 2 0 0
244 2 16.27873313898629 7.1357414669685815 0.9175368547920784 1 0 0
245 2 14.837867626397419 8.007805144766316 3.2169624911889523 1 0 0
246 2 16.316060166129013 10.730238655292212 3.385058084046607 1 0 0
247 2 14.823785084897644 9.870309833473021 0.9240705173949623 1 0 0
248 2 2.8515784120414054 13.189894914068933 3.5919372633607862 2 0 0
249 2 2.77584098596612 14.969362961728967 1.1238120425837905 2 0 0
250 2 1.317929851107138 12.256293164686054 1.072907207014104 2 0 0
252 2 4.248468375416877 12.601299686425483 0.8120398131450359 2 0 0
262 2 0.12428725018851594 13.082319613928924 3.62022725988975 2 0 0
253 2 5.96765559815924 13.409091372687028 3.339014440994523 2 0 0
254 2 7.36181895650229 12.230089437507361 1.1693826520681696 2 0 0
255 2 6.082929416129616 15.083877024332205 1.1468822711840219 2 0 0
258 2 8.804671692795452 14.89443421649055 1.133871514237869 2 0 0
257 2 9.031901106369922 13.308008461810811 3.6469557796247365 2 0 0
259 2 11.973552560154978 13.092891441681962 3.5364791662749635 2 0 0
260 2 11.806761572297233 15.143897673545341 1.059697476544384 2 0 0
261 2 10.175316359628233 12.56230388140108 0.9776143294800119 2 0 0
263 2 13.12417139795901 12.335300077652372 1.0220209675309633 2 0 0
251 2 17.695834424057963 14.96456832661667 1.1176683807268206 1 0 0
264 2 15.023041984134977 13.130877960582199 3.510174127586794 1 0 0
265 2 16.225602048379322 12.34630587606904 1.0662302173469174 1 0 0
266 2 14.769635933818677 14.78272586172331 1.2285257001734369 1 0 0
267 2 1.4217961146344607 15.731406899945773 3.5898606403467186 2 0 0
268 2 3.1843655535394717 18.245350400264844 3.4840885295706494 2 0 0
269 2 1.4666054991572182 17.594334069193312 1.2300759419880922 2 0 0
270 2 4.347509225165773 15.698629041409479 3.4214401554830216 2 0 0
256 2 7.597910585722538 16.046421693529123 3.6018139319879987 2 0 0
271 2 4.4531484671163994 17.501636633252303 1.139801296934048 2 0 0
272 2 5.980874300235271 18.375702132827552 3.402092720266969 2 0 0
273 2 7.370761403676994 17.476091128890353 1.0676577744468336 2 0 0
274 2 8.839348314387173 18.570882969876997 3.3666761867699972 2 0 0
275 2 10.470347345871119 15.70586643888567 3.4279242756845227 2 0 0
276 2 11.750449414437341 18.34588123953518 3.326663544202648 2 0 0
277 2 10.415510495863103 17.778794758174758 0.9934195281741783 2 0 0
278 2 13.257981959989408 15.55523716060882 3.4585292707621496 2 0 0
279 2 13.38847332091369 17.59495323287995 1.10157180490615 2 0 0
280 2 17.629619767119436 18.113350264202946 3.702428753542593 1 0 0
281 2 16.459551562065307 15.685822981153036 3.586115796253041 1 0 0
282 2 14.816395200236819 18.04463606423416 3.6463532378370576 1 0 0
283 2 16.15530752808708 17.35650692264804 1.2494975020761199 1 0 0
284 2 3.0253639483511137 20.396654521193952 1.1721936308929437 2 0 0
285 2 1.7715525643496548 20.510587307588203 3.691398318203444 2 0 0
286 1 3.1133406670484334 23.042597194097983 4.2779947396667275 2 0 0
287 1 1.7855937776859818 23.021767868873944 1.808863683398254 3 0 0
288 2 0.11538710110235684 20.30647746784509 1.1886496275957097 2 0 0
290 2 4.726103213568884 20.841572720309333 3.8225038168596837 2 0 0
291 1 4.562966175261053 23.083607377895852 1.7306058068528745 2 0 0
292 2 6.0128535041258 20.510149128621148 1.1613722519596723 2 0 0
293 2 7.542007804896144 20.935331289779825 3.6547405205525534 2 0 0
294 1 6.102792750655297 23.19213131504635 4.1781437721847325 2 0 0
295 1 7.5777625714816494 22.859716438052608 1.5026425514883601 2 0 0
297 2 9.065741944157537 20.3261072864871 0.8208788034610361 2 0 0
298 2 12.068741693650779 20.349054399424695 0.9784603138891776 2 0 0
299 2 10.731377266982804 20.785411099852066 3.446578428165966 2 0 0
300 1 12.023972474785865 23.220792598442372 3.912295885815624 2 0 0
301 1 10.369706774385719 22.79486872785843 1.6692684988611248 2 0 0
296 1 9.127151373924448 23.25799499608223 4.320554761909029 2 0 0
302 2 13.621038576495422 20.65173496905621 3.774383850472087 2 0 0
303 1 13.41648725801452 22.906285927638482 1.6522612915241823 2 0 0
304 2 14.869161187657802 20.22346853925719 1.3249589018704644 1 0 0
305 2 16.670474156904376 20.707061602624286 3.724037581045583 1 0 0
306 1 14.961162171831589 23.189702766267725 4.145409254292045 2 0 0
307 1 16.57662660022381 22.849104036294754 1.8139830385221025 2 0 0
308 1 3.0239968322736814 25.87384207041547 2.0919542579751313 2 0 0
309 1 1.7558870347532647 28.235643233101616 2.9329130912377916 3 0 0
311 1 1.6698454597361234 27.084207624802918 0.10983256024488053 3 0 0
312 1 0.24847797110273717 25.573331300462563 2.66126623523853 3 0 0
1074 1 0.29418696190617055 24.647117225668985 -0.04202467012054001 3 0 0
313 1 4.571819369209912 28.131015320962618 2.7692311196562094 2 0 0
314 1 6.320794399270383 25.658977642274884 2.1953303263545743 2 0 0
315 1 7.60127591938776 28.416996835476397 2.5373401457606057 2 0 0
316 1 7.566313551826276 27.00545005368316 0.06214790599604688 2 0 0
317 1 4.750370729495138 26.82772272539087 0.0688227253553524 2 0 0
318 1 9.15219472297305 25.549268732144576 2.481693728675892 2 0 0
320 1 11.993332541133896 25.84984353501181 2.317585385838239 2 0 0
1106 1 10.538517628906746 26.75811847786541 0.0366186628554388 2 0 0
322 1 13.700089483159125 28.507694171790813 2.6140783283207636 2 0 0
324 1 14.999246287980789 25.756413053100513 2.7917896876655983 2 0 0
325 1 16.5351810982528 28.36406542938434 2.813318861161629 2 0 0
327 1 13.444665433909542 26.819332455129345 0.09810976271305497 2 0 0
1113 1 16.497858364610067 26.834761412068147 0.37162021763306896 2 0 0
328 1 3.1451722851856587 30.892464166974168 2.893812492146944 2 0 0
329 1 2.9913693298507624 29.516349295426554 0.5503669818909008 2 0 0
330 1 1.752242015789946 31.935055420316072 0.4254201645959107 3 0 0
331 1 0.4499054135388505 30.85197823331671 2.761789555716864 3 0 0
332 1 -0.02380766577108062 29.6152827772355 0.2912408310759508 3 0 0
333 1 4.713173158900091 31.918237886428095 0.6200888882450613 2 0 0
334 1 6.146041344385125 30.917533869743842 2.7387685994215123 2 0 0
335 1 7.529340290495433 32.08473532846203 0.4213808052025345 2 0 0
336 1 6.091562424577276 29.292439508010983 0.2381007221078504 2 0 0
319 1 10.570523259087125 28.802403691982228 2.7609475191830297 2 0 0
337 1 8.981525802161578 31.002986490274953 2.7783500923261433 2 0 0
338 1 9.352051943311274 29.25204563714059 0.3531591430028417 2 0 0
339 1 12.066963100984239 31.068640702789782 2.873652238992132 2 0 0
340 1 12.16068618480282 29.42335639215139 0.3580062443337038 2 0 0
341 1 10.5540501887954 31.678741005041918 0.6118129881891318 2 0 0
342 1 13.41380630747743 32.1575602554208 0.3926866301489496 2 0 0
343 1 15.248671844243269 31.04846729116361 2.645095130972279 2 0 0
344 1 15.099974459023642 29.490020310306637 0.15323072289738063 2 0 0
345 1 16.63190552029385 32.0109463581449 0.3050138488035359 2 0 0
346 1 1.727764921533236 33.59981244077718 2.8027174715211927 3 0 0
347 1 3.0025831231322115 36.07554761572844 2.7986791879649333 2 0 0
348 1 0.11392543154183699 34.56100916749268 0.5408269534115127 3 0 0
349 1 1.6592417836140285 37.0416490545721 0.28223563280382113 3 0 0
350 1 3.028138253243398 34.25357890969203 0.5090405728645454 2 0 0
351 1 0.23410195303277703 36.19760646324288 2.674176660029929 3 0 0
352 1 4.51954714620112 33.39630788205958 2.890612768659698 2 0 0
353 1 4.639694543246257 36.874875275377086 0.34524178126213406 2 0 0
354 1 7.457237376400236 33.50751683902626 3.0555362044999548 2 0 0
355 1 6.069635987477618 36.07671821270136 3.004222332649645 2 0 0
356 1 7.493147771835133 36.998070747133994 0.7479193589509933 2 0 0
357 1 6.045006868706672 34.522983495794435 0.619243969544147 2 0 0
358 1 8.897104888042342 35.87418275844297 3.0904119727058954 2 0 0
359 1 8.932886819139227 34.53454502939891 0.5979494075829229 2 0 0
360 1 10.540052615443471 33.55538552642347 2.908168697048553 2 0 0
361 1 12.030570595385122 36.32686344127013 2.8387351325541528 2 0 0
362 1 10.386131676827844 36.912289137354826 0.5436684011526383 2 0 0
363 1 11.834564179304294 34.34145901713447 0.4376611477289466 2 0 0
364 1 13.425692890862607 36.952146651735006 0.28696119919274204 2 0 0
365 1 13.49053433600637 33.70357072716739 2.966527775639812 2 0 0
366 1 16.40903765069165 33.5709110938359 2.7170904239732074 2 0 0
367 1 15.027355281187248 36.2448665852573 2.739011821983431 2 0 0
368 1 14.935369720011089 34.35469287941689 0.35845347822660517 2 0 0
369 1 16.57634690200733 37.01152935972192 0.32340695697879335 2 0 0
370 1 3.3855447896649196 41.36588812259436 2.778044362477759 2 0 0
371 1 1.6802784538045685 38.84191878295713 2.7287298737887236 3 0 0
372 1 3.050982164158718 39.7665997341982 0.414575299674491 2 0 0
373 1 0.37592886759086497 41.40523189654912 2.8259031659673144 3 0 0
383 1 0.1844424258709907 39.61330919002464 0.3257027732724069 3 0 0
374 1 4.575788114952061 38.84033867592972 2.8287698821752154 2 0 0
375 1 6.1911455391690495 41.43070681538807 2.8840837890754942 2 0 0
376 1 7.3642891360202185 38.728107389478765 3.0158718043134174 2 0 0
377 1 5.968841655622178 39.574851847014344 0.41077548964741 2 0 0
378 1 9.072339885679469 41.286032885731046 2.7257056348102684 2 0 0
379 1 8.887831871977731 39.65003376830092 0.4077419279945262 2 0 0
380 1 10.222822861808758 38.6821358577069 2.699919314551145 2 0 0
381 1 11.775112542041256 41.2293802025849 2.7526793365437037 2 0 0
382 1 12.135056363517364 39.63388314177201 0.32532907706082353 2 0 0
384 1 13.438396441448802 38.77873900960974 2.650746654215891 2 0 0
385 1 14.83888271818008 41.3246979086826 2.7800774804722366 2 0 0
386 1 16.22635983231239 38.827104837913 2.53944960133032 2 0 0
387 1 14.922609727956548 39.637449373646604 0.3278896990235957 2 0 0
388 1 3.124856920702605 -40.69778235908889 5.290242467566108 2 1 0
392 1 0.18570164264620104 -40.74139111060268 5.253757746229268 3 1 0
389 1 1.6564304063789308 -38.268260484284404 5.400228178499646 3 1 0
390 1 2.9979998302251296 -38.84958485560456 8.057509952948301 2 1 0
391 1 1.4795466070037198 -41.51233347777818 7.715327391205993 3 1 0
393 1 0.09423454057404827 -38.960931100065366 7.7583400714553035 3 1 0
397 1 4.3864145559095915 -41.43441651102599 7.907250164179407 2 1 0
394 1 4.490481132091261 -37.96015706528854 5.348891628986291 2 1 0
395 1 5.918867927584664 -40.59651801701236 5.431681385353322 2 1 0
396 1 7.593122034841137 -38.02378307056387 5.457337630406426 2 1 0
398 1 5.765405905203445 -39.00447165939368 7.772118628921668 2 1 0
399 1 7.457698668005069 -41.46437221910436 7.583986197515908 2 1 0
401 1 11.75050722976492 -40.51791344117062 5.290746353742659 2 1 0
403 1 10.509636221973231 -37.95367941241537 5.381411752727409 2 1 0
402 1 8.963064220455937 -38.54281423223282 7.990664714297929 2 1 0
400 1 8.941840823483304 -40.52295026233448 5.51141494837893 2 1 0
404 1 11.965257523427212 -38.909395894193736 7.744571263056834 2 1 0
405 1 10.397409062611654 -41.49920162262648 7.864346129716972 2 1 0
408 1 13.399769836844852 -41.45561647627278 7.758245870157383 2 1 0
406 1 16.267566702607567 -38.3190251354935 5.326445252794646 2 1 0
407 1 13.402028215702302 -37.88432809559522 5.273346412324618 2 1 0
409 1 14.776167307882133 -40.67917644812824 5.255939310586775 2 1 0
410 1 14.773810554041988 -38.94190098991511 7.636810778345273 2 1 0
411 1 16.333200464951535 -41.636948084522196 7.456245827557094 2 1 0
412 1 2.860601471271842 -35.68134545908038 5.5518860772066665 2 1 0
413 1 2.7328949982376924 -33.683066782375 7.88827470938913 2 1 0
414 1 1.3730701554172084 -36.422663436895434 8.058939707127173 3 1 0
417 1 4.503107431106207 -36.447268788656025 7.734149225341248 2 1 0
418 1 5.98857268018417 -35.61335626950312 5.615892416270043 2 1 0
419 1 7.442761238131117 -36.3076347927218 7.801984955006575 2 1 0
420 1 5.7806696590345075 -33.77827676891387 7.930976475810426 2 1 0
422 1 8.845854151988101 -33.52601793845061 7.83630238111077 2 1 0
421 1 8.97884872668675 -35.249793052994775 5.616032030679025 2 1 0
423 1 11.805600773129143 -35.627548485914815 5.473193680890623 2 1 0
424 1 10.318027675934468 -35.986921995725154 7.8366720319686385 2 1 0
425 1 11.739282651277977 -33.57075243125072 7.914810797811437 2 1 0
415 1 17.519002466788116 -33.849368522986914 7.697792160125408 2 1 0
426 1 13.318281098584995 -36.15384506260406 8.01983290467763 2 1 0
428 1 14.78316568396172 -35.521173754751715 5.2819613122723075 2 1 0
416 1 17.703743898710293 -35.76143814997095 5.4846031861826905 2 1 0
429 1 16.152471077633642 -36.399538721549334 7.885863794109888 2 1 0
430 1 14.700080313164863 -33.75511822486425 7.802889357532855 2 1 0
439 1 4.366001743866079 -32.959738445807055 5.327260645296997 2 1 0
432 1 1.5440166432052251 -33.05159017290453 5.466457888356368 3 1 0
433 1 2.9516739991075553 -30.421104478504674 5.54909558001518 2 1 0
434 1 1.345756995131589 -31.302042530911304 7.813449769077218 3 1 0
448 1 0.14927407290166173 -30.214092430282392 5.436141920096099 3 1 0
438 1 4.402548540303853 -31.373825453232477 8.036352173097061 2 1 0
437 1 7.247273531364492 -32.865989562253034 5.363517553508921 2 1 0
440 1 5.815814854085019 -30.292061948138013 5.484057112204355 2 1 0
441 1 7.37982393586442 -31.017133468732286 7.932922050099139 2 1 0
442 1 8.796434947060433 -30.302064383560094 5.444653798849466 2 1 0
443 1 8.784854916231831 -28.496094435538385 7.928589886544356 2 1 0
457 1 5.906958359005204 -28.504663688721223 7.667201715368834 2 1 0
427 1 10.368898241619661 -32.88832778428964 5.517558852096289 2 1 0
444 1 11.907994820112982 -30.226489378981242 5.63007654830461 2 1 0