LAMMPS data file via write_data, version 29 Sep 2021, timestep = 400000

1176 atoms
2 atom types

-0.06418788243396101 17.715863496061864 xlo xhi
-41.90858203796595 41.90858203796595 ylo yhi
-0.05240918654423954 14.464941972716705 zlo zhi

Masses

1 107.8682
2 107.8682

Atoms # atomic

432 1 2.8197690936276736 -40.77823621706372 4.226827047069519 2 1 2
224 1 1.4114465117400201 -38.02906782053741 4.4764661732011595 2 1 2
218 1 1.5153673298536665 -39.429153854016725 1.616259106659998 2 1 2
421 1 4.182956735001624 -38.14820617144356 4.206655951084362 2 1 2
417 1 4.355216288113935 -39.524448771705664 1.702457847823946 2 1 2
434 1 5.557582595379515 -40.67846611601087 4.06816486958204 2 1 2
420 1 7.194230118500318 -38.053358878454404 4.229672534929643 2 1 2
414 1 7.148846531858553 -39.58822699149545 1.9644478789628477 2 1 2
40 1 8.620615941252375 -40.418147060025156 4.222244818435047 1 1 2
29 1 10.338855170529355 -37.99177233213325 4.424811169161683 1 1 2
25 1 10.409206878739305 -39.77171152374494 1.9168887477381993 1 1 2
28 1 13.28756674949551 -38.10416071515229 4.375923396372144 1 1 2
42 1 11.659844484029861 -40.36710359188084 4.35861126768979 1 1 2
22 1 13.337018785986384 -39.751192025785215 1.91070128485969 1 1 2
236 1 14.682680471258267 -40.67812347015536 4.367943393873706 1 1 2
225 1 16.330908450499592 -37.962213725957696 4.504171501756185 1 1 2
238 1 17.680046908371466 -40.600873407664395 4.3103501647298135 1 1 2
221 1 16.265710489292047 -39.850629178322755 1.8560853297128481 1 1 2
416 1 2.7925170938123567 -37.0552505036939 1.93592311136016 2 1 2
422 1 2.649036723829189 -35.46171643033632 4.474096906800966 2 1 2
208 1 1.434433571260912 -34.595603552892484 2.0067457969376252 2 1 2
222 1 17.69314649939158 -36.9755144932993 1.8399892831243152 1 1 2
405 1 4.255694174845154 -34.721773853920254 1.7837149132328787 2 1 2
418 1 5.845857107676564 -37.140040786335874 1.8633789924121993 2 1 2
419 1 5.527262672380944 -35.752440249942666 4.231516475656667 2 1 2
30 1 8.686378296143086 -35.53505968192293 4.274915085222743 1 1 2
404 1 7.236031792414776 -34.49780786318639 1.8827721256489824 2 1 2
24 1 8.655351204975235 -37.185195026848945 1.9623478017799454 1 1 2
26 1 11.857326394577356 -37.0791214449283 1.956314054081933 1 1 2
13 1 10.20825988203907 -34.753459633438695 1.7428478109836931 1 1 2
27 1 11.801042188202459 -35.4991613292868 4.27427639943268 1 1 2
12 1 13.096913018503423 -34.566138637274044 1.883238724540257 1 1 2
220 1 14.813467610354861 -37.16112296300924 2.0997559816626197 1 1 2
226 1 14.65250881507885 -35.48073768243042 4.359355274296905 1 1 2
223 1 17.667288232601955 -35.283996707404725 4.1942589706994795 1 1 2
209 1 15.959111850482186 -34.47523708886233 1.9265000730376207 1 1 2
409 1 4.45275473276583 -32.88053325812918 4.243722220990522 2 1 2
210 1 1.220505257727276 -32.870480452577645 4.2489496109951865 2 1 2
407 1 2.529320103970889 -32.21043307706074 1.6780546574666517 2 1 2
408 1 3.161777812111614 -30.381603442271334 4.02144749705493 2 1 2
200 1 1.4189677965714083 -29.629730146946017 1.5565825107184508 2 1 2
398 1 4.331973219645657 -29.494842470604993 1.7030987471892376 2 1 2
406 1 7.319415960033457 -32.956619814697085 4.107359276155677 2 1 2
410 1 5.884877924364822 -30.14411655693811 4.094176193547049 2 1 2
15 1 8.604574514356745 -32.13556654195507 1.792662050208137 1 1 2
396 1 7.468379732855834 -29.518276534036673 1.7226117448505478 2 1 2
403 1 5.639984412212659 -32.03250840431669 1.865559638311941 2 1 2
16 1 8.638421763523207 -30.27099899793123 4.02183892523032 1 1 2
17 1 10.398474760204792 -33.06074456361671 4.043592421182496 1 1 2
14 1 13.392852964974047 -32.670627350134524 4.265940821001166 1 1 2
6 1 10.447860687500837 -29.483754753027313 1.8117764208288323 1 1 2
18 1 11.59996038022233 -30.145505275487963 4.323019743355029 1 1 2
11 1 11.879275099860186 -32.187680402652354 1.8136843859379592 1 1 2
4 1 13.319482065852107 -29.34473091295424 1.533037486780511 1 1 2
213 1 16.20432584837537 -32.86536705555872 4.169285344745853 1 1 2
212 1 14.747564513256627 -29.840480845344317 3.950441603991587 1 1 2
211 1 14.512255056556803 -31.93133110935762 1.6879524782242703 1 1 2
214 1 -0.03292032362710273 -30.259524732954183 3.866346305843278 2 1 2
207 1 17.52487427801516 -32.150224943188576 1.5504595877547838 1 1 2
202 1 16.390461867264037 -29.76568759227372 1.5066178721692005 1 1 2
691 2 4.068958107190024 -27.47826482775884 3.5535227133087144 1 0 2
700 2 2.6411770785490076 -24.8172525469597 3.0511365723899955 1 0 2
1084 2 1.0546005833845633 -27.54339244674547 3.4891411527268645 2 0 2
690 2 2.9757175516666234 -27.101126436501488 1.0990432172200872 1 0 2
688 2 4.018477190666381 -24.6694835900592 0.565132267761581 1 0 2
1081 2 1.174241726755149 -24.527713274140375 0.684046611308435 2 0 2
697 2 5.541344163511681 -24.368586514036412 2.9835217894074497 1 0 2
692 2 7.156246657859701 -27.777598285331393 3.723598240469946 1 0 2
896 2 8.88401217213857 -24.79151142073926 3.019856740005351 1 0 2
687 2 5.799301556570036 -26.953025736926964 1.1691312356878445 1 0 2
886 2 8.756252448927466 -27.021766327217087 1.153994613345897 1 0 2
689 2 7.07831937853085 -24.79849397084581 0.6841920320058019 1 0 2
887 2 10.37336447297787 -27.486703642325843 3.6578581816460134 1 0 2
888 2 13.132048002306469 -27.295608271490423 3.587286473352778 1 0 2
893 2 11.771206623712043 -24.85611617537519 2.861459125694249 1 0 2
883 2 11.584043319980665 -26.92431509736476 0.9195997276971952 1 0 2
884 2 10.200208353833933 -24.61170809655851 0.5598202876556568 1 0 2
885 2 13.370241649446715 -24.570313478996038 0.6855470825470246 1 0 2
1092 2 14.645484070472882 -24.962144135384037 3.1415265940464647 1 0 2
1083 2 16.205699727141173 -27.502710764500698 3.517453590540712 1 0 2
1082 2 14.463319534098549 -27.16195547478354 1.1367927069599588 1 0 2
1079 2 -0.03809518072890228 -27.086842599007092 0.9787509114515263 2 0 2
1080 2 16.181919375904954 -24.63863213675257 0.6122207065240943 1 0 2
1089 2 17.247154097406398 -24.87794695768445 3.0170780392301957 1 0 2
698 2 4.215717158431238 -21.672646658683345 2.298988017488081 1 0 2
1091 2 1.3423641126657317 -22.006516507346944 2.6441576075459223 2 0 2
693 2 2.5350209691816756 -22.254262666869582 -0.0015060755462754788 1 0 2
699 2 7.152621597482241 -21.666524273985754 2.4931478325051524 1 0 2
889 2 8.482607791804009 -22.491643774639876 0.07993659551213836 1 0 2
695 2 7.00136727152469 -19.88548684224779 0.149712374111379 1 0 2
696 2 5.577156775596991 -22.156177812702197 14.375374642255784 1 0 1
894 2 9.95416823212594 -22.096749952213845 2.4523103967203044 1 0 2
895 2 13.081891674283032 -22.230640578569965 2.5568756214357173 1 0 2
891 2 13.073854326043154 -20.128779882076884 0.1733687342064379 1 0 2
892 2 11.62221537547054 -22.357850421206273 0.30033233443010154 1 0 2
890 2 10.164069351285843 -19.978546346591344 0.23149675580260243 1 0 2
1090 2 16.242097043197226 -22.2520714656363 2.63833531264208 1 0 2
1088 2 17.416216063857284 -22.023250216476487 0.36956994776990365 1 0 2
1085 2 14.584552133360024 -22.283516158831013 0.10785258202603479 1 0 2
694 2 4.115146939964328 -19.85461664500867 0.32765702283212406 1 0 2
1087 2 1.4232272029758997 -19.51810886826304 0.16322240021710174 2 0 2
709 2 2.8133244282397003 -18.69189418945135 2.690204419793841 1 0 2
710 2 4.303326688620063 -16.24481479054087 2.4659021766187625 1 0 2
1103 2 1.2644383213940449 -16.52185951823918 2.3283766164049804 2 0 2
708 2 2.711014287932169 -17.17466882245459 -0.020813607608679084 1 0 2
905 2 8.817667311381173 -19.24153826421394 2.5106162404300076 1 0 2
712 2 5.859174313851172 -19.04271728648797 2.7169851015854953 1 0 2
711 2 7.242439013849131 -16.44660834538733 2.40785892320157 1 0 2
705 2 5.7759817539079235 -17.073811141468802 -0.012110179615313577 1 0 2
904 2 8.872684701372693 -17.111589093048558 0.16039148542586842 1 0 2
908 2 11.624111940680473 -19.116869959253286 2.559927389537227 1 0 2
906 2 10.167978832126645 -16.74744102152163 2.5992256321699325 1 0 2
907 2 13.151302776719529 -16.443664754329475 2.4305256213255495 1 0 2
901 2 11.646884443699435 -17.450757741580432 0.18675705795948067 1 0 2
1086 2 16.084696159541423 -19.573788646273044 0.04544633832910509 1 0 2
1104 2 17.64735657838343 -19.22007338667344 2.3472338884778865 1 0 2
1101 2 14.494146938938398 -19.406723939102932 2.4689706258320174 1 0 2
1102 2 16.133378110978576 -16.4383766717001 2.33898449110634 1 0 2
1100 2 14.531546571367228 -17.2612047915689 0.09236149866619314 1 0 2
724 2 2.5273197232384033 -13.614796065948923 2.6153661769413987 1 0 2
1115 2 1.1507209892981036 -11.205120926801442 2.6230985334428705 2 0 2
717 2 2.578165911059448 -12.191376481232552 0.09855527240415524 1 0 2
1099 2 1.1105441690325613 -14.644139951107764 0.0328069011578397 2 0 2
706 2 4.295396648350254 -14.641848837194015 -0.009946740835813053 1 0 2
722 2 4.122603274632813 -11.218357931746496 2.417592034395008 1 0 2
721 2 5.834451598988437 -13.689355222159506 2.4125119753116775 1 0 2
723 2 7.347580212781047 -11.191395306748717 2.3630415433682836 1 0 2
707 2 7.1695741551067895 -14.646525425884846 0.01227569408120903 1 0 2
720 2 5.688234769525975 -12.145998428463482 14.463685847520656 1 0 1
913 2 8.679286205959832 -12.112474796393268 -0.04467406074086808 1 0 2
920 2 8.759041793671683 -13.844669123591167 2.558189981919908 1 0 2
918 2 10.149031406500542 -11.236692618041651 2.208937042688245 1 0 2
919 2 12.950244652829369 -11.37210974569106 2.2949936667651634 1 0 2
917 2 11.598113588415083 -14.202802212849324 2.523778096157242 1 0 2
902 2 10.07597544512553 -14.596253851063807 14.306636182593596 1 0 1
903 2 13.049298998213997 -14.669907804602957 -0.008345150318743014 1 0 2
916 2 11.661658715578644 -12.219523879597986 14.37590072996019 1 0 1
1116 2 14.63668583653926 -13.833620320778582 2.6047000885143112 1 0 2
1113 2 17.5361153895092 -13.57267141641416 2.4750805554190602 1 0 2
1114 2 15.966562660448416 -11.239323591149653 2.2951408908792263 1 0 2
1098 2 16.18028249500749 -14.749994666428773 0.2236236510297866 1 0 2
1109 2 14.410549257258173 -12.135079637608026 0.0001929527607368725 1 0 2
1112 2 17.448278443476916 -12.016942402347084 14.451308914544583 1 0 1
733 2 2.5443214057760963 -8.691204802245522 2.1747287916860714 1 0 2
732 2 3.0179524176392363 -7.201301723308042 14.373014871826737 1 0 1
1111 2 1.3529171996929474 -9.651005037837571 14.195321992335712 2 0 1
718 2 4.3436340576616415 -9.596567977765098 -0.03634416042875962 1 0 2
736 2 5.633387060710653 -8.855335891759403 2.525513896546748 1 0 2
929 2 8.749921746334618 -8.672796527980061 2.4373014309200225 1 0 2
719 2 7.137403693148007 -9.428807501483192 -0.00673570974426442 1 0 2
729 2 5.658585138754059 -7.157861060512509 0.035410737695931324 1 0 2
928 2 8.84633120003297 -7.106993981248273 0.06978398086113553 1 0 2
932 2 11.719032495152687 -8.929462348232057 2.3002014340433568 1 0 2
915 2 13.076575456589422 -9.581321278627968 14.395453670363498 1 0 1
914 2 10.375324286298373 -9.586825503149015 14.322334628747221 1 0 1
925 2 11.78466195747683 -6.960638040864296 0.1662796192194378 1 0 2
1125 2 14.569796579264871 -8.73905984661225 2.494064768372711 1 0 2
1128 2 17.498397578901702 -8.818034392940824 2.1763851066124427 1 0 2
1110 2 15.987557748875021 -9.710187796546897 0.01023749165520016 1 0 2
1126 2 16.153966755208515 -6.209175560617233 2.303157912969045 1 0 2
1132 2 14.423247519986512 -10.437253235757773 4.788364281765608 1 0 2
1121 2 0.1676973688817398 -7.14341728796736 14.403672958128633 2 0 1
1127 2 1.2087862747647087 -6.1743677557168155 2.534010505557041 2 0 2
734 2 4.126744504581085 -6.156066713578838 2.53082973586783 1 0 2
748 2 2.845516892773819 -3.5073146385433205 2.4743501829512398 1 0 2
1123 2 1.4710932323056078 -4.721004999587414 -0.0402175495815723 2 0 2
730 2 4.491047693872774 -4.610847283042965 -0.00033013911632551185 1 0 2
1137 2 17.70968212163276 -3.7216627907960103 2.3978559824817003 1 0 2
735 2 7.065597716050996 -6.336524064243861 2.442765622998078 1 0 2
745 2 5.854897334057465 -3.781942961044301 2.3225107356335597 1 0 2
944 2 8.513690165389189 -3.618268961147187 2.4091679181800125 1 0 2
731 2 7.30657267441946 -4.618188649304983 14.44996400294063 1 0 1
931 2 13.115727790001241 -6.135494785435071 2.3891893860560884 1 0 2
930 2 9.947986029907275 -6.246531618951863 2.5498587951450133 1 0 2
941 2 11.793192341238734 -3.792099262233286 2.3807436218836453 1 0 2
927 2 13.26436656472603 -4.388964587637695 0.06924479771399561 1 0 2
926 2 10.114379572371755 -4.362369118285592 0.13239555584445384 1 0 2
947 2 13.146265022653049 -3.046168479654966 4.63976570917064 1 0 2
1140 2 14.81401916701128 -3.773798349612015 2.1066802533644515 1 0 2
1122 2 16.20687659200543 -4.537059640663067 14.319609942395392 1 0 1
1144 2 17.512155042124363 -5.383721675970342 4.6777236994084985 1 0 2
746 2 4.390713161744776 -1.0306691148900882 2.297656162134427 1 0 2
757 2 2.960284578218052 1.531645271018398 2.044474327101009 1 0 2
1139 2 1.5204846449741805 -1.2006726105777474 2.3121652022003687 2 0 2
1135 2 1.0293892085149277 0.4236164323799372 0.018618102137364298 2 0 2
1152 2 17.342638228307308 1.6399438973233345 2.4892071066374704 1 0 2
764 2 2.721519879395939 -0.22532527379551937 4.511056872662626 1 0 2
1155 2 1.3989133870130481 2.198140391866879 4.622245180772047 2 0 2
760 2 5.964433561926914 1.4498403091235517 2.3922994710327727 1 0 2
747 2 7.104111987137512 -1.1893482887416127 2.3949688426382707 1 0 2
953 2 8.81261017568381 1.3623334974445669 2.2889363876200486 1 0 2
937 2 8.76650429851429 -2.035980002820743 0.01857519694835795 1 0 2
744 2 5.905794760883064 -1.8849851658097094 0.01052008121436998 1 0 2
761 2 5.6956937142992095 -0.07795767393120911 4.818321316743334 1 0 2
942 2 10.17873473455359 -1.1303280691676676 2.5011815137185898 1 0 2
943 2 12.916233104483052 -1.2224674237138302 2.2546462152169515 1 0 2
956 2 11.585725007701525 1.399154069757337 2.31088552256171 1 0 2
938 2 10.169165013216112 0.44946466460283574 -0.03486342670321586 1 0 2
1136 2 17.605963159141183 -2.137982396183432 0.005535613406134843 1 0 2
1149 2 14.588733520852127 1.4689115808060436 2.36046925613607 1 0 2
1138 2 16.097641744392867 -1.1205382757379994 2.397966129429244 1 0 2
1156 2 14.647517502363355 -0.4285944395387844 4.674670338021191 1 0 2
1154 2 16.20824881292193 2.148482296551606 4.993559194520493 1 0 2
1153 2 17.588955091330952 -0.2960334789844836 4.8031712955763535 1 0 2
1133 2 14.661845593567483 -1.948548662513204 -0.00012063162068182143 1 0 2
1134 2 16.00108332551811 0.6267886462034156 14.457080186392997 1 0 1
758 2 4.506407312315815 4.1734802305812195 2.456180994081006 1 0 2
1151 2 1.5529847096779812 4.294091367972449 2.4640846596564137 2 0 2
769 2 5.753589273186009 6.95772467575199 2.1338658399705484 1 0 2
759 2 7.274176100929644 4.027857215308096 2.2063829684390117 1 0 2
968 2 8.595636876336599 6.618328120186682 2.3014342718454297 1 0 2
776 2 5.965431940326284 5.066326937039044 4.71088569277963 1 0 2
763 2 7.328577898719742 2.286299191852649 4.695563076290257 1 0 2
954 2 10.055993832869298 3.940751098054335 2.3858516961033676 1 0 2
955 2 12.983559708267308 3.9658806872543337 2.504916907790209 1 0 2
972 2 11.861175332389347 4.877892714243245 4.848832403183526 1 0 2
965 2 11.463994017476569 6.54920172310252 2.4617387167382927 1 0 2
959 2 13.281024855902292 2.1325166820203876 5.052427879701408 1 0 2
1164 2 14.797663110995158 6.54577829643582 2.5888732984844434 1 0 2
1150 2 16.06764141758986 4.010447005107714 2.5008051653479253 1 0 2
1168 2 -0.05702526594046157 4.781200337445426 4.727959198261538 2 0 2
1145 2 17.631390185980997 3.1696416697314334 0.21619767401208634 1 0 2
772 2 2.9305735051769854 6.719403975129573 2.434481307990818 1 0 2
770 2 4.379583034233004 9.420065506818197 2.5396393856689556 1 0 2
1163 2 1.2608925735894276 9.398737593910795 2.5698304064465667 2 0 2
784 2 2.876453345448896 9.83058909166855 4.796527016943267 1 0 2
771 2 7.364168815224666 9.3929132236753 2.3050316973529243 1 0 2
768 2 5.881339394657055 8.383704750647766 14.257575158928475 1 0 1
961 2 8.865966163399285 8.350451780882217 14.365288571539583 1 0 1
781 2 5.943429191940345 9.946466493952009 4.864086097021669 1 0 2
966 2 10.257297855259509 9.255570604270048 2.3307807539900574 1 0 2
967 2 13.106654430053187 9.089442643395536 2.3790045879152024 1 0 2
970 2 10.174298316880197 7.438266477052444 4.721515367856911 1 0 2
971 2 13.418481133442091 7.443831190736624 4.8455344610497875 1 0 2
977 2 11.658103295321206 9.873788903809235 4.7967877973942485 1 0 2
962 2 10.334890630653453 10.846621530727596 0.08434174526318827 1 0 2
964 2 11.882137775151323 8.320041740000825 0.029030739942421238 1 0 2
1161 2 0.015400610125702957 6.794822607487376 2.4711657974123877 2 0 2
1162 2 16.25323705701127 9.106573033805134 2.372946881316624 1 0 2
1176 2 14.804834946776406 9.886660005097951 4.6575104795322195 1 0 2
1173 2 17.576207013336568 9.955242842113257 5.174956827944112 1 0 2
1166 2 16.249176347384328 7.244791809994872 4.9439629699955425 1 0 2
779 2 2.888200036471249 11.860121483302066 2.2653020591071344 1 0 2
489 1 4.431171679475407 14.398360689395517 2.875282461988143 2 0 2
292 1 1.5101435073444431 14.38549226264167 2.9266607906740862 2 0 2
778 2 1.4151124782433622 13.720526823237144 0.10950515547442383 1 0 2
1175 2 1.4196410322773343 12.349568628681482 4.8958711493531775 2 0 2
777 2 4.128683325803371 13.38377591170773 0.23851751514442232 1 0 2
975 2 8.872200956201864 11.986003005125362 2.283393098954586 1 0 2
780 2 5.894151713272884 11.981009825449078 2.320712686975982 1 0 2
488 1 7.3142402730568055 14.70481592280911 2.8867714751092093 2 0 2
974 2 7.206489926411958 13.684387686797379 0.19255720555065753 1 0 2
976 2 11.737423045718739 11.916356340231964 2.206751858779216 1 0 2
97 1 10.20792788760917 14.66550994679524 3.1672818726458396 1 0 2
96 1 13.038857602637256 14.357833032854387 3.025153710118659 1 0 2
973 2 10.01610637583512 13.656018000107267 0.32080428539513245 1 0 2
979 2 13.301994314542373 12.432741972995345 4.943700141786351 1 0 2
978 2 10.151821864517649 12.356200163447184 4.718068605788225 1 0 2
1170 2 13.343990324534255 13.677051234396117 0.1684362175605538 1 0 2
1171 2 14.577408649666877 11.58885311451602 2.341629241463173 1 0 2
1172 2 17.60480140943156 11.763365031824222 2.5855254931521516 1 0 2
293 1 16.180735216345035 14.462563229705147 2.9926140094667635 1 0 2
1169 2 16.257186736174795 13.483898601262332 0.14527429844242054 1 0 2
490 1 2.641158657045545 17.14333680725457 3.3244432785653606 2 0 2
280 1 1.2122114930148842 18.788693750442718 1.2552521143225992 2 0 2
477 1 4.349039935450518 18.785601302781956 1.4115791612283142 2 0 2
485 1 2.753583414474321 16.439146167614027 0.7423876025294344 2 0 2
481 1 4.363971843027327 20.172881121072095 4.1678932862573514 2 0 2
282 1 1.4924311688687617 19.78614431728232 3.9369922588633854 2 0 2
486 1 5.649949422561694 16.154880933657935 0.8392179010843437 2 0 2
487 1 5.546887525786043 17.197186726375364 3.448721842827899 2 0 2
98 1 8.550863093612158 17.32196831680561 3.406715478661596 1 0 2
476 1 7.156888558536109 18.727086839535787 1.286163945491655 2 0 2
93 1 8.54924941918324 16.03281006183645 0.8906799208754601 1 0 2
94 1 11.657596415459532 16.07720192998424 1.0951539782871393 1 0 2
95 1 11.690101931752006 17.065809609000453 3.5271773130668134 1 0 2
85 1 10.019681593366967 18.63789252575546 1.2416271118184483 1 0 2
84 1 13.10913905516851 18.681459442950775 1.3926612930004456 1 0 2
289 1 14.749317155062997 16.075580098399833 0.963572095879496 1 0 2
290 1 0.050398228528308664 16.149515139518954 0.692441177502628 2 0 2
294 1 14.71755585694948 17.310666959773485 3.3630778138003263 1 0 2
291 1 17.399294180954918 17.187679535705065 3.4629774897016508 1 0 2
281 1 16.056647660977575 18.642054740175183 1.3267972278200055 1 0 2
285 1 16.33070118648441 19.8599708797731 3.9154733555362298 1 0 2
480 1 3.064903209339377 22.693808927651098 4.3835397938971035 2 0 2
266 1 1.0207573984601417 23.57508118654537 1.8144514751463312 2 0 2
479 1 2.8690056917130806 21.111356823672942 1.704590027010904 2 0 2
465 1 4.094097251862107 23.353750424638186 1.9161506657316878 2 0 2
478 1 7.345684724289313 19.923119260056744 4.373375545843892 2 0 2
482 1 6.09447447210846 22.686636267046403 4.109282076793099 2 0 2
88 1 9.012139611639588 22.317761664263394 4.381671419623471 1 0 2
87 1 8.89575859022074 21.223512357271048 1.7510127749070552 1 0 2
475 1 5.989201675722865 21.108879084606357 1.8465204903121744 2 0 2
462 1 7.248170492069155 23.902969557293254 1.8144023038940387 2 0 2
86 1 13.291387744003973 19.498950818885632 4.033805463107185 1 0 2
89 1 10.27054700757716 19.41845687261422 4.056966366193253 1 0 2
73 1 10.13561868101421 23.583026150157416 2.1845082293259077 1 0 2
90 1 11.583700303201988 22.3443084426763 4.218295418117059 1 0 2
83 1 11.793426909658127 21.07218769664661 2.0120049935261233 1 0 2
70 1 12.871586582892531 23.58980442847531 1.9376684911895317 1 0 2
283 1 14.6186126435716 21.03079126498669 1.8107521908648394 1 0 2
284 1 14.561061713920758 22.493673188542836 4.313352687972617 1 0 2
286 1 0.05596715799674713 22.623349891554135 4.417275999198636 2 0 2
269 1 15.813004604752548 23.706946176025973 1.85632661868372 1 0 2
279 1 17.583769312877386 21.120159112103636 1.727420584283536 1 0 2
469 1 4.533679830603451 25.420652770128676 4.2819164292887955 2 0 2
470 1 2.843443018347976 27.64794990990695 4.098013257859117 2 0 2
464 1 2.9485212235474303 26.328482512982283 1.5846142569124728 2 0 2
272 1 1.343143742881232 25.390361249830015 4.1214383111364805 2 0 2
271 1 17.71478833586294 28.035536025696153 4.197046037346591 1 0 2
466 1 5.765905064868857 26.33787483653409 1.809329091272827 2 0 2
467 1 5.742777225313241 27.91887157686606 4.284495017418776 2 0 2
468 1 7.132986840705187 25.204155968112666 4.316804005270194 2 0 2
78 1 8.79691097092283 28.000789602636026 4.175741531604184 1 0 2
72 1 8.803093993024754 26.341835503282717 1.7874486797123086 1 0 2
77 1 10.196862811198848 25.44148654705996 4.0816726692439165 1 0 2
76 1 13.202234562881577 25.29605657011293 4.212558130721424 1 0 2
75 1 11.532498934824488 27.683102772908192 4.163115020223035 1 0 2
74 1 11.485089939803244 26.46300597239219 1.508505227442739 1 0 2
61 1 10.359700153401167 28.994326236747447 1.7776700551036058 1 0 2
60 1 13.223010098645759 28.831721732602254 1.7936091768857423 1 0 2
273 1 16.119754506793385 25.051244679820833 4.293584209652308 1 0 2
268 1 14.547140580658294 26.37904905954951 1.790298793582351 1 0 2
274 1 14.583679470762894 27.891989526037598 4.119312750339737 1 0 2
270 1 -0.048300716265238464 26.12155829443767 1.9816461252502156 2 0 2
257 1 16.16247628720282 28.578324676185765 1.877701071203964 1 0 2
256 1 1.2435822473808025 28.633428564707764 1.960115630770174 2 0 2
453 1 4.350606454950708 28.85817551573141 1.9785086997097938 2 0 2
457 1 4.222649813100605 30.555190229863847 4.28272919143227 2 0 2
258 1 1.5400331380462213 30.197375300016297 4.370663015463859 2 0 2
455 1 2.59726825627508 31.264061615666442 2.0050512600643855 2 0 2
255 1 17.547158575577498 31.120291708737803 1.9898118480303184 1 0 2
456 1 2.641509675578497 32.97706869254356 4.539561431525744 2 0 2
452 1 7.41433752760128 28.914019290371648 1.694105688745339 2 0 2
454 1 7.48794139394553 30.42321723258032 4.005666136211908 2 0 2
64 1 8.66929930975 32.928023804312 4.307652381538671 1 0 2
63 1 8.785393257558862 31.307508932774418 1.6146482279673249 1 0 2
451 1 5.78983664193188 31.342186687013474 1.8582336411128462 2 0 2
65 1 10.497275360164625 30.475495586318992 4.0848447492192275 1 0 2
59 1 11.714677553023067 31.568778508209625 1.8256616761329343 1 0 2
62 1 13.331973736385468 30.680131456068146 4.320753344807425 1 0 2
260 1 14.581580500049624 33.141164886991696 4.320589487716466 1 0 2
261 1 16.07912912204435 30.518011954785344 4.162899440393367 1 0 2
262 1 17.67445666015542 32.781419100334354 4.262927759552046 1 0 2
259 1 14.449997387643771 31.545716445806654 2.03827888935619 1 0 2
441 1 4.286056394210034 33.919178253088155 1.830948673535266 2 0 2
242 1 1.2793099871025724 33.744340689381765 2.023727333173426 2 0 2
440 1 2.6419376800892764 36.38987974856462 1.9206837404069237 2 0 2
248 1 1.3705427240956178 35.45174287401296 4.403366699510222 2 0 2
458 1 5.683315854827138 32.84974469092807 4.186796592431671 2 0 2
445 1 4.151390587015019 35.50780134061629 4.2453896551702845 2 0 2
438 1 6.991035544846773 34.026488813549285 1.7464988981485197 2 0 2
442 1 5.663436034246188 36.43247810289909 1.9286578490731112 2 0 2
444 1 7.343624578762298 35.50324542413093 4.191396375344518 2 0 2
48 1 8.786813336359424 36.52441524757689 1.9788305146874148 1 0 2
66 1 11.826996115128484 33.1859329202834 4.282546630047458 1 0 2
49 1 9.92098562167518 33.86359429733769 2.0678204202344075 1 0 2
46 1 13.094624220347276 34.30221230823691 1.9129397637802548 1 0 2
53 1 10.107753316547603 35.53919446967833 4.4507089931408 1 0 2
52 1 13.186424389956446 35.660488308235976 4.497552946790513 1 0 2
50 1 11.708838275221236 36.65142067324975 2.0370386523365456 1 0 2
246 1 17.531073948140403 36.36851217809667 1.8354724093775867 1 0 2
245 1 16.15504073543108 33.91325268972725 1.8494992319803345 1 0 2
244 1 14.680054016683112 36.44217886465287 1.7901012199336341 1 0 2
249 1 16.3344590631391 35.691013091029184 4.175020652876041 1 0 2
446 1 2.833281331887818 37.993087447297235 4.327186901813309 2 0 2
433 1 4.212850842147407 40.68100165815935 4.203109757212503 2 0 2
232 1 1.4108255264519185 38.91170969307304 1.9008868944816582 2 0 2
431 1 2.7789751842606125 41.65137027121356 1.8315298511136726 2 0 2
234 1 1.439553318293581 40.654076624366304 4.173896858992794 2 0 2
429 1 4.198213005999912 38.93094305680099 1.7742677154763637 2 0 2
54 1 8.708073296392364 38.09959910857889 4.41491798918856 1 0 2
443 1 5.953963055171156 38.20131504964312 4.036381717452673 2 0 2
427 1 5.664480794473632 41.62400597834439 1.7289336758232263 2 0 2
430 1 7.1627147290119995 40.74339526468079 4.208464881650139 2 0 2
39 1 8.631727935206529 41.43216094884077 1.806332136878695 1 0 2
428 1 7.160588490228373 39.073916376149135 1.6847441321407466 2 0 2
51 1 11.616063188006372 38.14744110415294 4.361117266860695 1 0 2
41 1 10.088633326489811 40.7699598214784 4.362334596069651 1 0 2
37 1 10.41956156270007 39.14165640660148 2.0701861036795894 1 0 2
38 1 13.003257517169102 40.741646746525724 4.391447338557752 1 0 2
36 1 13.154026637022145 38.94979366149156 1.9997280328900477 1 0 2
35 1 11.68435879824501 41.502919361323244 1.7636044208952193 1 0 2
231 1 17.697363835545403 41.5586062925773 1.9482465501836197 1 0 2
250 1 14.54788357395567 38.103835044981246 4.331163140440462 1 0 2
247 1 17.55601954648725 38.255461962369544 4.222333377271665 1 0 2
235 1 14.735722333619766 41.59909248353784 1.8132415114224583 1 0 2
237 1 16.09883470970958 40.72875546200029 4.388815505884711 1 0 2
233 1 16.30109068731361 39.034305161533304 1.8660556555258705 1 0 2
1003 1 2.891476221929432 -39.22565141807116 6.666107641894847 2 1 2
1005 1 4.3733826294683595 -39.69936160935782 9.168623316658149 2 1 2
806 1 1.1561361171518605 -39.76909695327925 8.985928507058123 2 1 2
804 1 1.2815268634579553 -41.58330054086644 6.62780400534664 2 1 2
1001 1 4.353085684955132 -41.49070842298375 6.784317535276694 2 1 2
803 1 17.592960356641747 -38.99936260555913 6.7746450178467965 1 1 2
999 1 5.773371653475688 -38.74146187524875 6.772204408489943 2 1 2
1002 1 7.363275086964638 -39.815131175616855 9.135430599537884 2 1 2
1000 1 7.250992169338173 -41.466190459737724 6.524027905249717 2 1 2
611 1 8.728543591560301 -38.77951181616973 6.7461534759082795 1 1 2
613 1 10.427881327615049 -39.57836482860954 9.274158868985527 1 1 2
607 1 11.657135827642085 -38.924211175163656 6.713180345795365 1 1 2
609 1 10.282041695849664 -41.34099021161842 6.88330989169886 1 1 2
608 1 13.24898739802159 -41.38246840561615 6.729214330811276 1 1 2
610 1 13.09751692360296 -39.70721784339762 9.036245165843912 1 1 2
807 1 14.719440248010281 -38.83955364104214 6.795158395513659 1 1 2
809 1 15.914288710666296 -39.842513603572336 9.205169034762562 1 1 2
805 1 16.12812839837637 -41.471488325052974 6.930191773140008 1 1 2
1004 1 2.5506126760056307 -37.23093842131332 8.908590981732061 2 1 2
989 1 4.194961973109919 -36.3255376086702 6.785526397802946 2 1 2
988 1 2.9112487693510887 -33.74285451402676 6.652148580365153 2 1 2
796 1 1.1682704575862946 -34.81394720890978 9.013068103707305 2 1 2
791 1 1.301322105481335 -36.613636508087794 6.791102963216172 2 1 2
993 1 4.389635007269492 -34.582029076864515 9.160559878331814 2 1 2
810 1 17.521217037469995 -37.44307800939854 9.16487021378143 1 1 2
612 1 8.803498673574273 -37.253683547198285 9.169134798103912 1 1 2
1006 1 5.651571033184675 -37.01873979762977 9.027637432354531 2 1 2
990 1 5.7320888582778355 -33.955878244082804 6.72832580138474 2 1 2
987 1 7.2503035857495135 -36.36619726706627 6.911872460599004 2 1 2
596 1 8.662942500318445 -33.83399626507602 6.559846823550625 1 1 2
992 1 7.238699436212747 -34.48180657919842 9.222819528682763 2 1 2
614 1 11.761295628463495 -36.98547642185571 9.196753969579909 1 1 2
601 1 10.140821333615234 -34.39114874519083 9.187955703162636 1 1 2
597 1 10.306052930500591 -36.132371219945405 6.81514076848071 1 1 2
595 1 13.027021520520826 -36.38331765542161 6.705977031804917 1 1 2
598 1 11.764867376542378 -33.73905507683048 6.766264350510869 1 1 2
600 1 13.326337925808412 -34.46688336824446 8.977193893398539 1 1 2
808 1 14.52894240518057 -37.1093801087992 9.029858921291023 1 1 2
792 1 14.803038904488067 -33.781129371876176 6.569349053266822 1 1 2
794 1 0.165429366834978 -34.07091275009857 6.665121898978015 2 1 2
793 1 16.133238109459676 -36.34206707062301 6.905145418117971 1 1 2
797 1 16.186637093837142 -34.522992256118904 9.252517595104326 1 1 2
995 1 2.8290660690371072 -32.0182174866584 9.001973370897698 2 1 2
983 1 4.34370017486675 -31.527205710816627 6.446813418036865 2 1 2
986 1 4.194650560677909 -29.692849146185207 8.984178558620268 2 1 2
788 1 1.3601177767289767 -29.494806550067246 8.811525124565158 2 1 2
786 1 1.46305334820079 -31.139588649673613 6.4509375385124885 2 1 2