LAMMPS data file via write_data, version 29 Sep 2021, timestep = 100000

680 atoms
2 atom types

-0.009955046653050914 17.661630660279815 xlo xhi
-12.086422145841336 12.086422145841336 ylo yhi
-0.016591744421535992 29.43605110046618 zlo zhi

Masses

1 107.8682
2 107.8682

Atoms # atomic

565 1 1.723920025353572 -8.31960812794765 2.808370516844076 2 1 1
564 1 2.8773494703755156 -10.452008632103514 1.3857383277587778 2 1 1
18 1 3.248027587166788 -10.511937221319814 4.22716456510162 2 1 0
560 1 0.5881915560385139 -10.894237383240494 2.9289636456880364 2 1 1
231 2 4.138740769039627 -7.694085606317041 4.068253930804838 0 0 0
566 1 1.7080335953135246 -8.375174490341829 29.189388559560463 2 1 0
96 2 4.09285110321255 -7.804049400167989 1.1078031913691548 0 0 0
616 1 5.50147526851772 -9.835199006661647 2.6715059435492017 1 1 1
74 1 8.219475127839985 -9.201507859971878 4.1832900027577775 1 1 0
615 1 8.58514582878679 -9.123764549574133 1.2836485343410395 1 1 1
68 1 6.877167441327771 -12.007799271441177 4.143772283986909 1 1 0
600 1 11.879655594917516 -7.468871336240388 2.3529723263394517 1 1 1
597 1 11.464563356648306 -10.086342453526953 1.1598319431133128 1 1 1
57 1 11.57264398882333 -9.978791813743904 3.9871025190247993 1 1 0
598 1 9.317422290414857 -11.377319684282194 2.6771237125939846 1 1 1
603 1 11.374987667004708 -7.649911991710007 28.975907337234485 1 1 0
584 1 17.043356155982107 -9.05029633942396 1.139331578856702 1 1 1
580 1 14.058377640936015 -9.385414369673738 2.602072159373362 1 1 1
38 1 16.686176500167953 -8.684298511150061 4.081163757700559 1 1 0
37 1 15.719446073261258 -11.441304902636404 4.277519485900765 1 1 0
577 1 15.61889189272267 -11.559409109945282 1.2664481677474022 1 1 1
80 2 1.965379179770086 -5.980303049364949 1.3189234916282442 0 0 0
82 2 2.163678306692981 -5.563316158937998 4.3771192495177935 0 0 0
99 2 2.4970537300258293 -3.3658243638874357 2.6577135087908212 0 0 0
78 2 17.558666490143118 -3.943398244316448 1.1818450151561772 0 0 0
619 1 6.53701432904778 -7.029199651363755 2.8266115677342034 1 1 1
101 2 4.609333739362755 -5.235093377202029 2.5064321784617105 0 0 0
113 2 7.475338681106604 -4.692731033242171 1.2315247573429289 0 0 0
116 2 5.273907554201895 -2.7015507481949737 1.4063700620370543 0 0 0
240 2 5.130421966002732 -2.6176575287422192 4.228230424064135 0 0 0
248 2 7.809852951747462 -4.443891506595119 4.392567186325539 0 0 0
120 2 9.438719921439198 -6.911125424731472 3.806231017879161 0 0 0
115 2 9.45319611492026 -6.522108824374672 0.9972792294980504 0 0 0
131 2 12.272030513868998 -5.08245652530421 1.0851885543782402 0 0 0
118 2 10.06294097304809 -4.182625845125422 2.7232081635633807 0 0 0
136 2 12.540480962481011 -2.6772201761189915 2.5651373309628585 0 0 0
266 2 12.249650846746087 -5.185985028799945 4.009727298119976 0 0 0
132 2 12.73966453804902 -2.723237992911349 29.145457025872695 0 0 -1
245 2 17.38512330061089 -4.022674843113295 4.171384057567519 0 0 0
127 2 14.721364214478317 -7.029434937102169 1.4390309382641706 0 0 0
265 2 14.49555611677057 -6.762151991357213 4.184261317364995 0 0 0
604 1 17.122104923317256 -6.316841276933015 2.6056756683972386 1 1 1
121 2 14.967135434904506 -4.368980404299506 2.736162445413739 0 0 0
81 2 0.20933116293891957 -1.4967470140410732 2.7480778529243426 0 0 0
91 2 2.773603902771393 -0.9414739890847255 1.3097345077558868 0 0 0
89 2 0.42096849584315943 1.0888365807988976 1.4275174174941065 0 0 0
94 2 3.217755714454759 1.5979387124104498 2.9031159975858034 0 0 0
100 2 3.038179926509661 -0.913668550423262 4.07679474030956 0 0 0
224 2 0.7171573905783617 1.157823486712335 4.137215207675089 0 0 0
77 2 0.35893216901300085 -1.368295854232569 29.183154300141787 0 0 -1
117 2 7.902153277051153 -2.2166063464158654 2.7749559850022485 0 0 0
241 2 5.568260830144029 -0.3205036981521836 2.619106576779023 0 0 0
110 2 5.815182357682671 2.2155213556160174 1.2945105605087346 0 0 0
124 2 8.122784294011344 0.13585731805350498 1.18642692440042 0 0 0
259 2 8.325729633402856 0.45688626490059825 3.838501332480331 0 0 0
243 2 5.841118284700539 2.2437386984221703 4.371259511748786 0 0 0
134 2 10.30092578595219 -1.807696295681648 1.0471775565505224 0 0 0
258 2 10.258702818295568 -1.678602658726959 4.112299659292764 0 0 0
135 2 10.871231305480526 0.9804127676367251 2.5916151030605517 0 0 0
85 2 13.1241814737529 -0.32181477060192165 1.1417593867863478 0 0 0
255 2 13.006398531821821 -0.02211036994578741 4.248558139414829 0 0 0
102 2 15.311618784579947 -2.02666725847644 1.3366922189141426 0 0 0
239 2 15.244296909567469 -2.112420179833535 4.1942595660082445 0 0 0
79 2 15.452007881713461 0.3099726195029433 2.8662969737558828 0 0 0
93 2 0.9076350291715276 3.518583625468075 2.9401133132617154 0 0 0
605 1 3.187549480302262 4.265848576701323 1.4424047124065087 1 0 1
545 1 1.9801330758714215 6.241854016154164 2.831147378533105 2 0 1
62 1 3.556502928483439 4.075476756103832 4.367625955454848 1 0 0
128 2 8.41854732969355 2.9383196242861835 2.9636908784026357 0 0 0
585 1 6.153227658495206 4.420738349185616 2.891270347819526 1 0 1
608 1 4.720338947713963 6.775469931257394 1.30875324156777 1 0 1
63 1 4.5366877529331004 6.590064324364143 4.079911259922855 1 0 0
23 1 11.229751408974385 3.5357088006511965 3.891108428986608 1 0 0
568 1 11.336397205445692 3.313851571455894 1.093967930709578 1 0 1
588 1 9.171265912825005 5.058912210438422 1.470566121161025 1 0 1
570 1 11.690435786131097 6.018507548579535 2.5427643634849044 1 0 1
42 1 9.077061231142348 5.231139176724415 4.24427927399015 1 0 0
84 2 13.420666009180552 2.195137411725554 2.4032130462259103 0 0 0
92 2 16.013868196458144 2.807086677899621 1.3523810646677228 -1 0 0
219 2 15.976539898037261 2.8736852433731404 4.164537395503498 -1 0 0
549 1 17.192912738279105 5.6448222713924565 1.3118078824503514 1 0 1
9 1 17.142148717751127 5.642017704989101 4.301162365015898 1 0 0
550 1 14.649678984458577 4.9141700466370075 2.7601667217400707 1 0 1
569 1 13.65113302258295 7.182183803811732 1.2985004247431604 1 0 1
29 1 13.560078636542222 7.091405754525535 4.377637486391208 1 0 0
111 2 13.414654660986814 2.2470598742880163 29.061061771032932 0 0 -1
556 1 0.6206788404617557 8.261197692485343 1.3555965873571474 2 0 1
10 1 0.7588481542822998 8.31330352502738 4.4199375000386985 2 0 0
547 1 3.3142074605153296 8.915320378026212 2.8736093645104512 2 0 1
557 1 1.6873091737579706 10.826451535472405 1.3837532736886857 2 0 1
17 1 1.812102387564912 10.990508826834535 4.241028248232713 2 0 0
614 1 7.017329421430583 -11.878518128878554 1.4254719297612013 1 1 1
590 1 7.544963569751199 7.180402043613384 2.7314363766139085 1 0 1
610 1 4.270582062170772 11.592873071084721 2.677860946404393 1 0 1
609 1 5.85048220191936 9.37477755722282 1.421977922008873 1 0 1
67 1 5.873502228111101 9.387995995529725 4.364481101844169 1 0 0
592 1 8.521711887005386 9.962709129201869 2.9087727778504973 1 0 1
589 1 9.840086420740906 7.947315203763228 1.3679997876049352 1 0 1
49 1 10.141670642299088 7.951710668069602 4.200488212033047 1 0 0
572 1 12.29985721902432 9.085713169089491 2.9372763021940593 1 0 1
596 1 11.000575252682898 10.93368642805584 1.129012880238641 1 0 1
50 1 10.837693624705002 11.02089130002712 4.406420633776051 1 0 0
578 1 13.151983539660108 -12.058367371382076 2.7376420977605753 1 1 1
552 1 15.893445567392256 7.846921631611494 2.853756359505613 1 0 1
558 1 17.095392017349297 10.68200250454209 2.626389431549158 1 0 1
576 1 14.649480886363952 10.027964184179151 1.4436350650118026 1 0 1
30 1 14.618297804709945 9.952865442143594 4.3530907889626755 1 0 0
22 1 1.6415181887143546 -8.033615159721677 5.662884438144632 2 1 0
21 1 1.7039794393800756 -8.329388860841407 8.694087122213244 2 1 0
20 1 3.3043487109130925 -10.296375768865982 7.07916272323799 2 1 0
16 1 0.7578815478863562 -10.98756070932003 8.609470816619458 2 1 0
19 1 0.6013704837554055 -10.862568612714668 5.941821156676489 2 1 0
232 2 4.305716644717502 -7.747155975624156 7.0709915567550405 0 0 0
72 1 5.947715646169174 -9.665142770695693 8.531917623145187 1 1 0
73 1 5.820326165543038 -9.618036463289574 5.6346091120817725 1 1 0
76 1 6.654226406564523 -6.804475539755817 5.559371125850086 1 1 0
70 1 6.927799536943737 -11.867991585872673 6.944801387984256 1 1 0
210 1 8.863765446251335 -8.889900722431133 10.082840680991028 1 1 0
71 1 8.568136642304124 -9.07400045081349 6.903532917607507 1 1 0
59 1 11.863018134630128 -7.435535587633588 5.2543559419964625 1 1 0
56 1 12.19569616591479 -7.468754146041922 8.437436008147259 1 1 0
53 1 11.25652275747403 -9.667712353350247 6.996965978564521 1 1 0
54 1 9.203627585441069 -11.101285357286613 8.449973873018774 1 1 0
55 1 9.194906651561944 -11.370397767053305 5.4178469578890756 1 1 0
40 1 16.71856444422684 -8.841612035023578 7.137615308684975 1 1 0
39 1 14.011028046357263 -9.17052231676894 5.6137149795047945 1 1 0
36 1 14.223628816629862 -9.494347573393426 8.398025176071624 1 1 0
33 1 15.676369946394765 -11.453912823093104 7.153257841195725 1 1 0
216 2 2.113121988610857 -5.823787068938411 7.317661595065633 0 0 0
223 2 2.3445266408296854 -3.314646779435037 5.826560470529029 0 0 0
235 2 2.678486832108565 -3.3124579554762867 8.723293705989477 0 0 0
75 1 7.018034335558057 -7.183525947490351 8.516455766572417 1 1 0
233 2 4.668461375840894 -5.204364422202471 5.595290895064724 0 0 0
237 2 4.941601154457265 -5.198956205032624 8.438019960275616 0 0 0
249 2 7.310639952825103 -4.545325401319188 7.078561810058784 0 0 0
252 2 5.164775330099679 -2.745998561955048 6.982931543365912 0 0 0
251 2 9.547390772324395 -6.3961275339173875 7.013954096580528 0 0 0
267 2 12.360604604707113 -5.09020082259082 7.095309434200871 0 0 0
250 2 10.078331645038949 -4.064212807004711 5.56068436237888 0 0 0
254 2 10.023066068601809 -3.6123452897567 8.33233511691392 0 0 0
268 2 12.608005741400762 -2.677290662791238 5.745572378463518 0 0 0
272 2 12.785197269650718 -2.336486127332167 8.482478044803946 0 0 0
214 2 17.395356038292533 -3.8986525281142796 7.257326088848203 0 0 0
263 2 14.627137456802917 -6.866325376657484 7.094636505226219 0 0 0
58 1 16.97398801646541 -6.380246302847332 5.663089795915107 1 1 0
60 1 17.224645846370514 -6.468913483763009 8.531381159270353 1 1 0
269 2 14.84872911249102 -4.416162177412431 5.731438890205512 0 0 0
257 2 14.998883610396357 -4.250894858922714 8.688998455798467 0 0 0
217 2 0.6269648007661474 -1.450434836401211 8.684691410322563 0 0 0
227 2 2.956762629364564 -0.8751542640536627 7.031315619627556 0 0 0
225 2 0.7863070810321551 1.0731783517867584 7.0824674930686635 0 0 0
226 2 3.4694789678343985 1.7605901316862962 5.856244967539149 0 0 0
230 2 3.3187539007147278 1.5349873614001872 8.654455920779247 0 0 0
213 2 0.24724444483386637 -1.612304358126332 5.6296538643142044 0 0 0
253 2 7.890583175242974 -2.032879320613187 8.470076802768965 0 0 0
244 2 8.057442849522099 -1.8094211275417038 5.656762365754863 0 0 0
242 2 5.782292716625159 -0.2802647084788248 5.532801482879383 0 0 0
377 2 5.644015207143351 -0.20321242753610846 8.317751830573085 0 0 0
246 2 6.197135874816776 2.2801717576196943 7.313328005808338 0 0 0
260 2 8.432078537127834 0.45477069305983164 7.08493875755502 0 0 0
270 2 10.694038998234145 -1.1121095138937935 7.070770613383492 0 0 0
262 2 10.810019103768612 1.0376052630704802 5.5669910519193575 0 0 0
271 2 10.954992228247214 1.2838323503874438 8.587405402280258 0 0 0
221 2 13.235243733547811 0.3095046081898065 7.092797745794252 0 0 0
238 2 15.371976139949124 -1.834924583546437 7.017742008794402 0 0 0
234 2 15.944674255811293 0.4589404087846525 5.583068465681111 0 0 0
215 2 15.897315064240033 0.657928853971395 8.586344849643893 0 0 0
247 2 13.410751727143355 2.544042550121153 5.344009068163137 0 0 0
220 2 13.505903913270423 2.500029593102157 8.51430178993076 0 0 0
222 2 1.2817185567113805 3.590258456436935 5.926333243464633 0 0 0
229 2 1.4225007708200799 3.687843882537079 8.890836882112882 0 0 0
61 1 3.755594267202207 4.142668295979924 7.3367096971592325 1 0 0
2 1 2.0155057326218775 6.276735321904361 5.695352145949954 2 0 0
1 1 2.487965531446411 6.16006547533831 8.717112161857372 2 0 0
261 2 8.346385305749381 2.88331769958406 5.752918659068824 0 0 0
41 1 6.51950795644942 5.028553725184363 8.825261888618702 1 0 0
43 1 6.508972361263369 4.733734433496249 5.884920247831499 1 0 0
64 1 4.7999060528055715 6.866755785293478 6.950415342439676 1 0 0
264 2 8.583728048300264 2.875335774403359 8.730096541353378 0 0 0
44 1 8.895030717012457 5.38546280555807 7.325143555123995 1 0 0
24 1 11.033716947372314 3.5398296317339337 6.884840991222872 1 0 0
27 1 11.350038671098279 5.985191436977161 5.729992310827661 1 0 0
26 1 11.635610415797098 5.746920398955869 8.574906592746238 1 0 0
228 2 16.24765814576768 3.1965615781269783 7.233615669899197 -1 0 0
5 1 17.265096588237014 5.702047424189331 7.173599661610985 1 0 0
7 1 14.768965938607863 4.994245671488983 5.6582854908416635 1 0 0
25 1 13.755178705986738 7.021598901378603 7.335525274925003 1 0 0
6 1 14.745564420818548 5.122901196736802 8.813110008615766 1 0 0
12 1 0.8650612817789874 8.410859473758077 7.3060931810095155 2 0 0
4 1 3.1601565183297717 8.882084072072349 5.636774206619811 2 0 0
3 1 3.5118918110888213 9.103489803528575 8.481930369653405 2 0 0
13 1 1.8284170764199565 11.0129189855829 6.955309454491436 2 0 0
47 1 7.4874976842068905 7.42091629565568 5.578774910892983 1 0 0
46 1 7.648754848042366 7.614083393057651 8.710387214606822 1 0 0
69 1 4.294594918971014 11.594255645374759 5.645033184833264 1 0 0
65 1 6.068025285186186 9.502752306069983 7.126932581267687 1 0 0
66 1 4.587667108736856 11.779725484996273 8.57244095765153 1 0 0
48 1 8.658090316193858 10.129664956136565 8.583091406818287 1 0 0
51 1 8.315441564920746 10.129926603087359 5.625491412045454 1 0 0
45 1 10.011874853717625 7.997868273004929 7.28945046321731 1 0 0
31 1 12.507223022367773 9.1133170558772 5.820173924281009 1 0 0
28 1 12.186296368981143 9.132796020728371 8.716316594818933 1 0 0
52 1 10.820836734398494 11.423238181564173 7.129147673746587 1 0 0
35 1 13.135353245961738 12.080340841638947 5.675649225139348 1 0 0
34 1 13.267644775088407 11.964121131537517 8.846650692448831 1 0 0
8 1 16.041049056631174 7.791966697526803 8.812287924853552 1 0 0
11 1 15.831588903341531 8.004864318167606 5.91238627808191 1 0 0
15 1 16.973280308306872 10.588065050742895 5.790046956138222 1 0 0
14 1 17.334480451793336 10.575718894442929 8.597947138527799 1 0 0
32 1 14.680132116607712 10.03765067069373 7.4731829975202455 1 0 0
158 1 1.7574028694673087 -8.310956478480627 11.6052647549398 2 1 0
154 1 3.3765418053476766 -10.258077644900816 10.238118400081232 2 1 0
156 1 3.251103734681256 -10.211174216633744 13.173896231182292 2 1 0
155 1 0.7870527089257289 -10.877563937035267 11.527516867511832 2 1 0
367 2 4.603733879957293 -7.765968961570016 9.9280469297616 0 0 0
368 2 4.394282245332529 -7.819110761563064 12.660259906259508 0 0 0
152 1 0.7113402979249442 -10.996693382152792 14.699506948915655 2 1 0
157 1 1.600731295974628 -8.481612343077451 14.618606503209186 2 1 0
209 1 5.992171146846288 -9.882959480529758 11.42934064345569 1 1 0
207 1 8.34234287295384 -9.104013432771795 12.908438787088595 1 1 0
208 1 6.003380074643649 -9.66293960431764 14.289404665642994 1 1 0
204 1 7.004529033749705 -11.924838196627185 10.015555724830474 1 1 0
206 1 7.104048414507245 -11.963828437303407 13.004334170732282 1 1 0
195 1 12.161975873423957 -7.67846014032508 11.193283972353484 1 1 0
193 1 11.630285988514004 -10.031815174129937 9.75249328898886 1 1 0
189 1 11.567234821633432 -10.060884942076708 12.909458925189023 1 1 0
191 1 9.172548449567138 -11.216260383216134 11.440174916779432 1 1 0
190 1 9.430568257442438 -11.076198322879991 14.326834091923901 1 1 0
192 1 12.214530558788912 -7.562812020658537 14.15356699845444 1 1 0
174 1 16.868130749098135 -8.93130970889623 9.969151409687907 1 1 0
176 1 16.946656702396997 -8.872835664188896 12.794513010257653 1 1 0
175 1 14.315646712298431 -9.619550247955175 11.407341661804516 1 1 0
173 1 15.904601104998253 -11.580166217310778 10.284968653694255 1 1 0
169 1 15.705213854889005 -11.548604923912542 13.022809757143293 1 1 0
172 1 14.253077889318886 -9.502288915542568 14.268319172426665 1 1 0
218 2 2.338695024290759 -5.879563522562709 10.241919188354217 0 0 0
352 2 1.9788718219651735 -5.9866002021054845 12.97549354840484 0 0 0
359 2 2.8290719146922205 -3.337503512264796 11.72829530663989 0 0 0
371 2 2.261349097437654 -3.371021099462105 14.464006671786871 0 0 0
212 1 7.050201441404047 -7.19862554635583 11.372516660690543 1 1 0
369 2 5.037201958076303 -5.099023526973147 11.430517973162345 0 0 0
385 2 7.636207757019472 -4.717287889104355 12.894021443760192 0 0 0
384 2 7.599909784127348 -4.7125429633286835 9.721042968775684 0 0 0
376 2 5.1538426307072935 -2.764038590129008 9.95956591988812 0 0 0
388 2 5.479586020029 -2.878799923956997 12.950335607683643 0 0 0
373 2 4.693735715586962 -5.226735856125191 14.33477782773831 0 0 0
211 1 6.987642124176781 -7.040079761071044 14.236129169326476 1 1 0
389 2 7.730759489153229 -2.2783861300286734 14.540782132036929 0 0 0
256 2 9.979503336845188 -6.31902601316694 9.788317086248147 0 0 0
387 2 9.84934905440964 -6.809454794096024 12.713509315346403 0 0 0
403 2 12.645988768546129 -5.193719747838311 13.041959823951593 0 0 0
402 2 12.604391801090483 -4.953604426491148 9.828418469650535 0 0 0
386 2 10.372356466476834 -4.115517492850065 11.462006064914348 0 0 0
404 2 12.850671316222272 -2.626641359206303 11.469917706562004 0 0 0
408 2 12.525931462493872 -2.4182415493216105 14.372153704531403 0 0 0
381 2 0.056017947412907054 -3.922169410786191 10.026827849449475 1 0 0
350 2 17.579692947093715 -3.8845200270113107 12.966372024768381 0 0 0
399 2 14.924067627527418 -7.030767853430149 12.907212103066284 0 0 0
401 2 14.58138237197039 -7.104171200955377 10.114481211441964 0 0 0
194 1 17.243695099782656 -6.2945096643766085 11.494257986218397 1 1 0
405 2 14.983597679986886 -4.544801846689546 11.468045753478656 0 0 0
393 2 14.835148488031207 -4.573632602318928 14.564194825354527 0 0 0
196 1 17.320553521777587 -6.404031290525249 14.378011671270224 1 1 0
375 2 15.531762756692467 -2.076683865658344 10.39869648221682 0 0 0
349 2 0.5256594708485931 -1.4311637856104547 11.617234208412594 0 0 0
236 2 3.0220670511369816 -0.8961523129533067 10.102091740237915 0 0 0
363 2 2.938422026120548 -0.8529795894387959 13.042276400516712 0 0 0
360 2 0.7597210876083612 1.2002420465388273 10.03068802186994 0 0 0
362 2 3.5228695860727353 1.5673016810668745 11.681448842222588 0 0 0
361 2 0.6474910302447134 0.8844391618788983 12.988715900747431 0 0 0
353 2 0.2247358633314136 -1.4053826643829588 14.57328694957558 0 0 0
366 2 3.3240783840042747 1.7522741363916605 14.483683320174503 0 0 0
380 2 8.1053402707408 -2.369754636508679 11.274589472975665 0 0 0
378 2 5.7038639304031555 -0.23731548192436946 11.65737272214452 0 0 0
379 2 6.006903409656102 2.215748858184627 10.079704085198435 0 0 0
382 2 5.772749453303996 2.197046780611087 13.175663120053798 0 0 0
396 2 8.05357059242005 0.17840132612847803 12.994542570361313 0 0 0
395 2 8.313640260008679 0.3749691499801031 9.952925037540865 0 0 0
513 2 5.4989442495448255 -0.28392593616018935 14.457490463003968 0 0 0
406 2 10.313179804063559 -1.5749849581423625 12.989204282985762 0 0 0
394 2 10.623196603023958 -1.3549894711687234 10.192470808879648 0 0 0
398 2 10.987941918539823 1.0434462902687773 11.56585487640001 0 0 0
407 2 10.76527975260381 0.8006039762223267 14.393587143263108 0 0 0
391 2 13.40547555606128 0.041598103642479956 10.100469300264145 0 0 0
357 2 13.30633614597291 0.2309711637512155 13.083117356902148 0 0 0
374 2 15.29235830529618 -2.0102348959610996 13.080096232505152 0 0 0
370 2 15.922164308529824 0.5519263038169502 11.47707297289034 0 0 0
351 2 15.90532634504752 0.6187081766855798 14.638892024997844 0 0 0
383 2 13.784521426747743 2.4151828454686175 11.550814953839277 0 0 0
358 2 1.1976428666802321 3.5316430266927874 11.759431358932556 0 0 0
198 1 3.8103182153476185 4.1330656366919385 10.13910514190564 1 0 0
197 1 3.7199578262307282 4.259733061454469 13.00318390510288 1 0 0
138 1 2.2844266258547363 6.373145428393322 11.524231501360196 2 0 0
137 1 2.516194748851551 6.299643164509405 14.320093719627671 2 0 0
365 2 1.257024489589175 3.760842116018864 14.60351520846547 0 0 0
179 1 6.338805769494869 4.651962436712562 11.500727819108667 1 0 0
199 1 4.997577181743603 7.042634290500409 9.975052745610098 1 0 0
200 1 4.847581784385953 6.8714041419047796 12.901513375843608 1 0 0
177 1 6.1641869324857295 4.607542303149835 14.584597074870732 1 0 0
397 2 8.794975244210994 2.766962046197026 11.724542120928852 0 0 0
400 2 8.407053283224315 2.7073032720623527 14.426330810121843 0 0 0
183 1 7.343108678542167 7.255951816446043 11.653744174495797 1 0 0
178 1 8.932627994326555 5.387830775259026 10.176608213366862 1 0 0
160 1 11.28062496553296 3.2282236654865315 12.996690153832489 1 0 0
159 1 10.923479494898569 3.596173362085384 10.126676810306801 1 0 0
180 1 8.983324411170992 5.305891405151392 13.032740332941591 1 0 0
163 1 11.589819207450532 5.996486874894472 11.511539481030805 1 0 0
162 1 11.69941268796985 5.625788544900082 14.338015381670553 1 0 0
364 2 16.377047727011423 3.026547470997036 13.143698842832407 -1 0 0
355 2 16.294926199885218 3.0422502239526796 10.16465789849515 -1 0 0
141 1 0.03073183703209182 5.665779534652675 13.050909036061258 2 0 0
145 1 17.44528330189527 5.55836697643997 10.292625882454566 1 0 0
143 1 14.803764850855192 5.1113967863388545 11.451596946709863 1 0 0
165 1 13.631860874299196 7.277151770140765 10.094120918820533 1 0 0
142 1 14.98973761455187 5.110182005726138 14.500960071599524 1 0 0
356 2 13.615187264654065 2.426533706088181 14.635609024900658 0 0 0
146 1 1.0207125591981128 8.41854313523367 10.128957886785704 2 0 0
148 1 1.02196139134716 8.584364251504578 13.218590102998114 2 0 0
140 1 3.2895952744478243 9.13415161485436 11.445788287093375 2 0 0
153 1 2.0204737694122232 11.17624226786607 10.115367853734199 2 0 0
149 1 2.23892637772914 11.261332826628966 13.112998523187574 2 0 0
139 1 3.6926649749218843 8.9733034716321 14.427280778219895 2 0 0
182 1 7.634011078300952 7.364259817440466 14.437500653404772 1 0 0
203 1 6.005423048670413 9.699917815629966 9.988479041379748 1 0 0
201 1 6.069026427585774 9.514614855124794 12.976222861573671 1 0 0
205 1 4.6303217196535 11.702872240243785 11.574140721870437 1 0 0
187 1 8.187179148979448 10.019466342655917 11.503460642600123 1 0 0
184 1 8.510587322540074 10.215614277087077 14.585536417145752 1 0 0
202 1 4.649139495135669 11.76373063447382 14.518472232556439 1 0 0
181 1 9.985821763967532 7.982476712048932 13.107827037498385 1 0 0
185 1 9.93319606263078 8.295505318365482 10.295563015122836 1 0 0
167 1 12.156624896300853 8.979348209843899 11.893225481480838 1 0 0
186 1 10.816091162020628 11.167501904914587 10.140527288858328 1 0 0
188 1 10.471595359839199 11.033162881304062 12.78836691294584 1 0 0
164 1 12.267686388446336 9.1270123343029 14.554686024543715 1 0 0
171 1 13.033446754971367 11.913170505168729 11.71673223825759 1 0 0
170 1 13.140788084115202 -11.884019509819163 14.60309525595632 1 1 0
161 1 13.804084420817592 7.236652799971463 13.063514705543927 1 0 0
147 1 16.253416009855993 7.826440931595531 11.658132394463287 1 0 0
151 1 17.282186788276388 10.512295306762255 11.570920041644694 1 0 0
166 1 14.646468447788628 9.957625378391363 10.170162523159853 1 0 0
168 1 14.766759295685054 9.794207734518949 13.257843372531697 1 0 0
144 1 16.283710219692214 7.730856285097374 14.437967242775137 1 0 0
150 1 17.261708365475187 10.538348024469663 14.614643053181634 1 0 0
294 1 1.8652645212518542 -8.253616659546047 17.65504496601452 2 1 0
290 1 3.3959808425336218 -10.578623694799902 16.3868508564049 2 1 0
292 1 3.355080436276075 -10.372372158858635 19.240105216479574 2 1 0
291 1 0.7248122639415586 -10.77462436052199 17.520819948910912 2 1 0
504 2 4.692481610764267 -7.833137071677046 18.970285851549026 0 0 0
503 2 4.243781246761233 -7.797694102591467 15.780046690449414 0 0 0
345 1 5.876397317011753 -9.825550780925647 17.367416356141117 1 1 0
343 1 8.698016804080085 -9.059878503286585 18.684422415039194 1 1 0
340 1 7.341152986882879 -11.892297007275594 16.03935125069615 1 1 0
346 1 8.379261804826617 -9.133844642690887 15.834600556522803 1 1 0
342 1 7.193519855060764 -11.956879354503362 18.92853831663835 1 1 0
331 1 12.060588976301919 -7.590820279689983 17.537018751719852 1 1 0
329 1 11.49894420374344 -9.985823330135592 15.909802598128268 1 1 0
325 1 11.547225844777543 -10.089030458407484 18.751348911978898 1 1 0
327 1 9.59029995854547 -11.306966933021336 17.4350832734676 1 1 0
310 1 16.772669241639484 -8.876251195600275 15.98049742077764 1 1 0
311 1 14.392124838958793 -9.57231012163588 17.390947766794948 1 1 0
312 1 16.741129511078952 -8.88219230084878 18.94355078780239 1 1 0
309 1 15.738825378219248 -11.560136797943382 15.82098100236539 1 1 0
305 1 15.829142784703853 -11.74469061538421 18.913206356174275 1 1 0
354 2 2.0571753053559605 -5.8228665553379 15.969596014764358 0 0 0
495 2 2.4622884504717675 -3.4786709261470463 17.35851668183285 0 0 0
488 2 2.1910036057971762 -5.815134582048456 19.022944765569825 0 0 0
486 2 17.506300554015038 -3.937166578595132 18.914260587401763 0 0 0
348 1 7.006101367038349 -7.15905841098009 17.292047211670287 1 1 0
505 2 4.514876409534413 -5.32840678405103 17.26483015685559 0 0 0
520 2 7.281019670801199 -4.635099513081848 16.017404113398385 0 0 0
512 2 5.003634297912741 -2.7088310271250506 15.714048728329105 0 0 0
524 2 4.964030748104721 -2.915152960785779 18.574458213956298 0 0 0
521 2 7.26536959947432 -4.729028024580833 18.94789824574621 0 0 0
390 2 9.958911470625258 -4.29398219575282 14.327921851358367 0 0 0
392 2 9.79680821751428 -6.737686782254086 15.770127384957846 0 0 0
523 2 9.738567963139646 -6.4301872792548584 18.671655214544966 0 0 0
538 2 12.367940938381052 -5.278092057341547 15.9202101362329 0 0 0
522 2 9.887758710208077 -4.1974269864207026 17.2187072523599 0 0 0
539 2 12.471024063025355 -5.263851065954791 19.05427038130821 0 0 0
540 2 12.704010941681924 -2.6053997307004266 17.399841171058995 0 0 0
537 2 14.568788954354389 -7.059596494869028 15.822062174765934 0 0 0
517 2 17.358755376891434 -4.227489835979529 16.05088115616594 0 0 0
535 2 14.820164879621055 -7.055848303006897 18.790110740088704 0 0 0
330 1 17.194724008561895 -6.591593127316583 17.441420074757783 1 1 0
541 2 15.02058969588189 -4.589694685011311 17.493945447165835 0 0 0
485 2 0.32865223988275294 -1.423409898558356 17.51527191749383 0 0 0
372 2 2.9564328373498157 -0.857693709653331 15.769094433061344 0 0 0
499 2 2.9757026491951057 -0.9435774325327859 18.996588127177578 0 0 0
496 2 0.6958113489070691 0.9038384752981514 15.991817246262528 0 0 0
498 2 3.3475020669212596 1.4827861421194424 17.4901980639924 0 0 0
497 2 0.5210190233833643 1.1064205508129596 19.24090606892151 0 0 0
516 2 7.8184606615739005 -2.3789853479038126 17.523186094146784 0 0 0
514 2 5.7850318725801335 -0.5094715161007279 17.37349276657032 0 0 0
515 2 6.046868372472906 2.2338503866328168 16.05909771705434 0 0 0
531 2 8.323165724969405 0.2771390884998972 15.81690527208794 0 0 0
518 2 5.855933133087394 2.2521418239546787 19.111232295636125 0 0 0
532 2 8.129488269607636 0.3801846992593827 18.95603045403786 0 0 0
542 2 10.2079777144507 -1.6872165452697292 19.00634059267329 0 0 0
530 2 10.396233224369928 -1.679355162960018 16.001389530619562 0 0 0
534 2 10.68455683479682 0.7687092961057616 17.483301236187618 0 0 0
493 2 13.104627943915544 -0.17073754115953932 18.76691807653181 0 0 0
527 2 12.981149110816123 -0.17941752897138308 15.894314900949041 0 0 0
510 2 15.505058198370566 -2.0836753294747723 19.0154197143917 0 0 0
511 2 15.22910487525265 -2.105372493107227 15.807688119132127 0 0 0
506 2 15.604885995150418 0.586257928223235 17.34016816900374 0 0 0
494 2 1.0976344179636837 3.4984220373618484 17.549825361867292 0 0 0
334 1 3.666372218294534 4.142593562322418 16.13983630986492 1 0 0
274 1 2.0361774527365273 6.088980260722305 17.296889321497147 2 0 0
333 1 3.7974336605995744 4.07388176590462 19.021362708783162 1 0 0
281 1 17.32962104681894 5.525848274228579 15.910107422496358 1 0 0
315 1 6.225460204838249 4.644619714986391 17.463187854248748 1 0 0
335 1 4.730930331883019 6.8123778372231065 15.870641541220294 1 0 0
336 1 5.00047522687626 6.834558538942392 18.740550881890304 1 0 0
319 1 7.346061870962227 7.301722866257144 17.354592332654956 1 0 0
533 2 8.381501131123642 2.7721242496962244 17.452489896652846 0 0 0
314 1 9.071708675600892 5.212151901771467 15.916001457276426 1 0 0
296 1 11.022342043824542 3.3566621706102353 19.07654709712056 1 0 0
295 1 10.861785825584034 3.2523687717321526 15.937994137040443 1 0 0
299 1 11.637587386750704 5.6640542850014945 17.315332008502114 1 0 0
316 1 8.82806820250797 5.278613941700456 18.73847523589388 1 0 0
519 2 13.234549548624498 2.418384599309629 17.417855427516866 0 0 0
277 1 17.396445261740737 5.675810027310753 18.951904574025168 1 0 0
500 2 16.19762863375754 3.0794527893371857 18.914074240832754 -1 0 0
491 2 16.416448859517942 2.89296912295392 16.082578846570946 -1 0 0
279 1 14.568721086354707 4.9381846522890775 17.171437405798688 1 0 0
284 1 0.7756875457073723 8.576651434794641 18.829576395674906 2 0 0
282 1 1.0618286511443276 8.434385353400216 15.991711497449685 2 0 0
276 1 3.466027145782854 8.78406154725004 17.471791604898367 2 0 0
289 1 2.314461303393839 10.896409201868686 16.02696320724865 2 0 0
285 1 2.4769905920750195 11.08843912510611 19.05670862332977 2 0 0
339 1 6.048072814270113 9.406957889465538 15.838405516403862 1 0 0
341 1 4.823046141257586 11.573279823202718 17.28382264098499 1 0 0
337 1 5.848144188863225 9.649776291562656 18.88018522324813 1 0 0
323 1 8.394083330280353 10.027658009678674 17.568641749296898 1 0 0
321 1 10.01987004826032 8.011320699758219 16.068359344685096 1 0 0
317 1 9.922084260089505 7.8598711345970855 18.882235025444263 1 0 0
303 1 12.128112156250419 9.037966217377825 17.446190521086866 1 0 0
322 1 10.860822289556545 11.031475153696448 15.839091341807805 1 0 0