LAMMPS data file via write_data, version 29 Sep 2021, timestep = 1006

1800 atoms
2 atom types

-0.028901578785777815 27.880848149969022 xlo xhi
-19.018272297221596 18.783402099939007 ylo yhi
-0.06462589482185876 62.73122710261326 zlo zhi

Masses

1 107.8682
2 58.6934

Atoms # atomic

1 1 1.8117676027201322 -17.68665646693603 1.8000431168606417 0 0 0
2 1 2.648493523200023 -15.00916414570646 1.8154639221720388 0 0 0
3 1 3.5938772099710325 -16.98909485470472 3.8662506504903913 0 0 0
4 1 0.7591196044949531 -16.023898665196032 3.834141798299022 0 0 0
5 1 5.3927342652144725 -16.036069673909953 1.7931063325722507 0 0 0
6 1 8.242127208431716 -17.05291218350567 1.8703937851112105 0 0 0
7 1 6.401618053087321 -17.670460477261823 3.8761643941869273 0 0 0
8 1 7.284468590752571 -15.02540176612241 3.807627618518503 0 0 0
1201 1 11.080258394786943 -17.663375251596026 1.7507570059850894 0 0 0
1202 1 11.943326634839448 -14.990435222830971 1.781324617393369 0 0 0
1203 1 12.869851927631176 -16.99228102825487 3.8161168962200485 0 0 0
1204 1 10.050304099600895 -15.986156237250924 3.796192353861458 0 0 0
1270 1 9.388674879256389 18.781672977073406 3.8046919677243536 0 0 0
1205 1 14.695389052817685 -16.052249809347416 1.7763047113340673 0 0 0
1206 1 17.559665875415742 -17.08204295706476 1.871257431379106 0 0 0
1207 1 15.69472204361349 -17.702951951044003 3.8550909916051137 0 0 0
1208 1 16.581587192527653 -15.056536785707765 3.7919991441846905 0 0 0
1197 1 19.362919956175592 -16.01544884604344 3.7914784020919035 0 0 0
1198 1 22.212329305614382 -17.029370980527542 3.8443402625255545 0 0 0
1199 1 21.266864141697365 -15.03628072508663 1.7976355087624951 0 0 0
1200 1 20.413709607860667 -17.714715471018103 1.787224467489763 0 0 0
1193 1 25.895119815127394 -15.086244392243106 3.8181565835550417 0 0 0
1194 1 25.033360825460623 -17.743886028382107 3.884389555803757 0 0 0
1195 1 26.878710008063457 -17.10310219833654 1.8926083945315346 0 0 0
1196 1 24.020732997998863 -16.095939542238145 1.799616830249714 0 0 0
9 1 4.475863002278943 -14.151583606020768 3.814353216032258 0 0 0
10 1 3.523433331132045 -12.256901203135628 1.7861370257182787 0 0 0
11 1 1.6515690184870466 -13.231785010537802 3.8202710899362047 0 0 0
12 1 2.560579161294376 -10.43902844670315 3.8130844333371123 0 0 0
13 1 0.7086145094932017 -11.397304710772445 1.7765789702959092 0 0 0
1214 1 9.10815083278506 -14.172873027059325 1.75502435805215 0 0 0
15 1 6.30894118905293 -13.209410897802098 1.7696632085647082 0 0 0
16 1 7.2222714433924455 -10.38155827388514 1.7722522287966878 0 0 0
17 1 8.169667968389385 -12.256142439948999 3.7872068901907063 0 0 0
18 1 5.3730031866013075 -11.344556862750345 3.804852904710091 0 0 0
1209 1 13.766005042800865 -14.149110383267232 3.7788443148017556 0 0 0
1210 1 12.823757243750793 -12.235423222181145 1.763488271708379 0 0 0
1211 1 10.951981652691632 -13.19159498840723 3.7879841655315207 0 0 0
1212 1 11.86125962579338 -10.39461500734979 3.7945919177414993 0 0 0
1213 1 10.015833226854845 -11.326824357054777 1.7632826102564314 0 0 0
1187 1 18.420059786413717 -14.204574949936987 1.7523325691411775 0 0 0
1215 1 15.61267035768543 -13.225359885862051 1.7555789470121135 0 0 0
1216 1 16.520455831323652 -10.398185539047489 1.7656789346752437 0 0 0
1217 1 17.46905297686703 -12.28628690604103 3.772927494671301 0 0 0
1218 1 14.667534529368892 -11.344205347697843 3.7834973025122824 0 0 0
1188 1 19.321522441044483 -11.36238117763096 1.760180096223648 0 0 0
1189 1 21.16962284319368 -10.432313520617058 3.792221555053202 0 0 0
1190 1 20.26329247378033 -13.226418645188975 3.7861720134775685 0 0 0
1191 1 22.13581672162027 -12.277474743444998 1.7710131347593914 0 0 0
1192 1 23.086058411227736 -14.189462971124126 3.7992733482431427 0 0 0
14 1 27.721981304113463 -14.231659068863937 1.7746283867113821 -1 0 0
1183 1 23.97512319085452 -11.385938028328523 3.796051247655316 0 0 0
1184 1 26.769960102089073 -12.320356513910648 3.7986136720521726 0 0 0
1185 1 25.825520156500687 -10.4398099660316 1.7731572026701974 0 0 0
1186 1 24.921446008640597 -13.265247961766786 1.7692325531581448 0 0 0
19 1 1.6194658815123726 -8.579206101045454 1.7903956696251357 0 0 0
20 1 2.531435920791575 -5.765958116439068 1.8300670512298436 0 0 0
21 1 0.6819508107690454 -6.713196726872916 3.825584379510597 0 0 0
22 1 3.477695559088604 -7.643783055023633 3.8244230470650376 0 0 0
24 1 4.422268425253983 -9.475275620848842 1.785592605931715 0 0 0
1225 1 9.075430972660564 -9.445322902015125 3.797697877180271 0 0 0
27 1 8.145192172526286 -7.5500790924943795 1.7815928004658341 0 0 0
28 1 5.326718226821656 -6.683951047215707 1.8039381050244423 0 0 0
29 1 6.282975199075273 -8.544400304700691 3.812913171113126 0 0 0
30 1 7.204153265932358 -5.756695835282193 3.827616057569779 0 0 0
1219 1 10.93362684619393 -8.494689897072794 1.7829083749242967 0 0 0
1220 1 11.855426167360008 -5.65651454319054 1.8175812586130309 0 0 0
1221 1 9.99008414218456 -6.6255677449939645 3.8161340838416877 0 0 0
1222 1 12.771578868353682 -7.596243465594807 3.8169448885065558 0 0 0
1224 1 13.720333076484373 -9.457313180885222 1.7770342487073183 0 0 0
1176 1 18.3754806182029 -9.478425121295146 3.787970628120687 0 0 0
1227 1 17.44038409646204 -7.575428049544989 1.7865963129813762 0 0 0
1228 1 14.627239200289965 -6.683962894534269 1.794926530736068 0 0 0
1229 1 15.575933274535396 -8.541504674233405 3.8037118296415584 0 0 0
1230 1 16.503430229723346 -5.748383191819003 3.8307763685808536 0 0 0
1177 1 23.028925982048335 -9.496479101611252 1.7771062714693189 0 0 0
1179 1 22.08542570659168 -7.639901522108535 3.815896977755117 0 0 0
1180 1 19.299213678414223 -6.664046957144996 3.813975920082379 0 0 0
1181 1 21.164918847650387 -5.716166494843647 1.8200250871653867 0 0 0
1182 1 20.23540289759128 -8.536539346808173 1.7809364485436914 0 0 0
25 1 27.673533375396744 -9.521677738348846 3.805373467062081 -1 0 0
1171 1 25.804856210881066 -5.796754668332679 3.8404401529642143 0 0 0
1172 1 24.88120256149346 -8.591011112420112 3.8106324178107904 0 0 0
1173 1 23.937179979247645 -6.715010274281951 1.8027891254745272 0 0 0
1174 1 26.744409562329956 -7.612421484738958 1.792773460069146 0 0 0
23 1 4.401244890589849 -4.835780678282304 3.8561677385283115 0 0 0
31 1 3.4503016200699896 -2.9894833206249642 1.9012405312132468 0 0 0
32 1 1.5915317550711483 -3.884782588679188 3.880606273949759 0 0 0
33 1 2.534836133223293 -1.0830175617625062 3.9874889624827943 0 0 0
34 1 0.751633229655665 -1.8953961936836896 1.8537991396071325 0 0 0
35 1 4.137960074656049 -0.237042514445487 1.6679424230595659 0 0 0
1226 1 9.063479527648843 -4.681708511109083 1.8118290109756583 0 0 0
36 1 7.203215784884675 -1.2242373186196818 1.6993533720327962 0 0 0
37 1 6.204931748497629 -3.894700638814972 1.8606055069558427 0 0 0
38 1 5.315057252223252 -1.7852563681392828 3.8263084068385975 0 0 0
39 1 8.073269159125305 -2.955538216893665 3.8473175093895584 0 0 0
1240 1 8.74926356344451 -0.1265079021386125 4.009757476895396 0 0 0
1223 1 13.702595844627195 -4.820280315487012 3.8444246483091913 0 0 0
1231 1 12.778144582066043 -2.7874846662288038 1.9544131664641031 0 0 0
1232 1 10.899415105271666 -3.8107221870108146 3.860759551668404 0 0 0
1233 1 11.862057871144703 -0.9701077493749922 4.140196980607306 0 0 0
1234 1 10.046436582830415 -1.675496765388613 2.026990674858629 0 0 0
1175 1 18.381751155789154 -4.749026573873399 1.809235194239457 0 0 0
1236 1 16.43239687870456 -1.1892571284877023 1.829929493948639 0 0 0
1237 1 15.54106481882551 -3.9263533592162965 1.8182469917619155 0 0 0
1238 1 14.703122937593307 -2.054030442129258 3.885048482395732 0 0 0
1239 1 17.465914969898456 -2.970243494361098 3.8575235130271164 0 0 0
1161 1 18.39936233578888 -0.24043957528733187 3.8594463856765504 0 0 0
1178 1 23.01809718163083 -4.838816259264863 3.8520694686689816 0 0 0
1167 1 19.34467890132467 -1.8975084125844353 1.8173645061534502 0 0 0
1168 1 21.2343946954383 -1.0179989718585165 3.888765350780201 0 0 0
1169 1 20.24026812834676 -3.829373749208027 3.851286602765945 0 0 0
1170 1 22.122111045766182 -2.909921099578194 1.8613635765640701 0 0 0
1166 1 23.106149667316892 -0.11736473927824016 1.7777930927716425 0 0 0
26 1 27.673396065865393 -4.762004429643099 1.831751775215521 -1 0 0
1162 1 26.725712710278394 -2.9909452438861526 3.8941801709889123 0 0 0
1163 1 23.961122383212146 -1.9874220725638982 3.9060020176992154 0 0 0
1164 1 24.849268404728 -3.949609825997999 1.8492230141473907 0 0 0
1165 1 25.79186821316456 -1.2621076745085746 1.8226239265199118 0 0 0
40 1 27.681555807180107 -0.26735961060059676 3.9134893635996733 -1 0 0
41 1 3.9917558392749495 1.3554367463751045 4.045935386847277 0 0 0
42 1 2.1396520955244847 3.5478915076719386 3.9473969656195944 0 0 0
43 1 1.6424829326014567 1.2533309357251305 2.4223389422791892 0 0 0
44 1 4.055301052337634 2.7546554370538456 1.6174545769853688 0 0 0
54 1 0.14108025614089562 4.15034441498671 1.9748698749562676 0 0 0
45 1 8.577594373805367 2.726327427438107 3.9823804815300425 0 0 0
46 1 6.36333020486282 1.165572053545764 2.8400637191734615 0 0 0
47 1 8.655067943714943 1.3731859621415066 1.3337911001890377 0 0 0
48 1 6.833154358504468 3.7012928233649327 1.7599390011778568 0 0 0
49 1 4.899380523825089 4.3429949323266985 3.8518369943138584 0 0 0
1235 1 13.668999349320348 0.08631761439164436 2.1740769463875247 0 0 0
1242 1 11.277917551844737 3.7654385171040823 4.073100215645469 0 0 0
1243 1 10.97466836025398 1.2768020283009835 2.7796579108663964 0 0 0
1244 1 12.988916806736476 2.982906088420643 1.7757144278315329 0 0 0
1254 1 9.635956780155325 4.355781062057498 1.869179420062336 0 0 0
1245 2 18.101305557212612 2.6352245584099125 3.8702695606890334 0 0 0
1246 1 15.823837904383552 0.8030045327326969 3.9126800984620793 0 0 0
1247 1 17.598807710965033 1.3746957458400948 1.6052847059644177 0 0 0
1248 1 15.76893841949435 3.2448346510404353 2.4993244295807666 0 0 0
1147 1 18.64998640513826 4.2253454452977985 1.9212120168840636 0 0 0
1157 1 22.385285279443146 2.997511527859723 1.5016314438827867 0 0 0
1158 1 20.248769666380966 1.2593640537974602 2.3719437431450014 0 0 0
1159 1 20.536422536189725 3.57941381548963 3.9521639636305648 0 0 0
1160 1 22.613525830472923 1.62303421736469 3.8737521844564906 0 0 0
1152 1 23.176302336706467 4.54495810669978 3.9567020402878565 0 0 0
1153 1 25.098167241360148 3.2057765350680234 2.4843391043969567 0 0 0
1154 1 26.918132444299903 1.3157517607307012 1.621041265214496 0 0 0
1155 1 25.136110149181366 0.7351541274481457 3.879415657587134 0 0 0
1156 2 27.38143943478233 2.6107808282830396 3.907858459654607 0 0 0
50 1 1.0838519041848398 6.237713923564219 3.9084315955640356 0 0 0
51 1 3.890791246001074 7.2637761260462845 3.8377872636837584 0 0 0
52 1 2.9026674177711533 5.376558632462373 1.8824301712593505 0 0 0
53 1 1.9959382460598811 8.169261447744443 1.8480312966842467 0 0 0
59 1 0.15918861001689733 9.080674033524339 3.846505769526274 0 0 0
55 1 6.674638658527092 8.28919483483669 3.780837672782255 0 0 0
56 1 7.634650142109354 5.533432056878684 3.78272889414725 0 0 0
57 1 5.686395589253718 6.353035729256633 1.8172820580273636 0 0 0
58 1 8.534276158667947 7.307781160482554 1.7393618966395992 0 0 0
65 1 4.781692747951266 9.151743687278223 1.787098915398096 0 0 0
1250 1 10.378480858119548 6.5252146152966635 3.8063384769686657 0 0 0
1251 1 13.180165792946475 7.464779235380238 3.8359096506608488 0 0 0
1252 1 12.227959268178799 5.683298364404787 1.835397155084813 0 0 0
1253 1 11.289535999101854 8.408726507155334 1.7537785873167997 0 0 0
1259 1 9.42891620372574 9.270870471219336 3.7817274607826192 0 0 0
1249 1 13.948159272722625 4.701752794738891 3.9764345613901737 0 0 0
1255 1 16.00501935221706 8.204830395231763 3.8438136727968906 0 0 0
1256 1 16.92500882828175 5.3034761124975995 3.999506799132829 0 0 0
1257 1 15.105991018640346 6.237370281926722 1.9176917415450374 0 0 0
1258 1 17.87750152985721 7.143321561197568 1.9004808168364322 0 0 0
1265 1 14.15105730421118 9.12628529956631 1.7668473868456709 0 0 0
1148 1 20.573942251669916 8.28365323774467 1.850608974828726 0 0 0
1149 1 21.346248054793875 5.550335011250649 1.870338295438696 0 0 0
1150 1 22.425683554164124 7.308901887051037 3.8942205872046496 0 0 0
1151 1 19.62366332103722 6.298018760234935 3.957037953499873 0 0 0
1142 1 18.76558959873264 9.156153379083952 3.8593577067454587 0 0 0
1136 1 23.422901149711414 9.031562407789599 1.83011446016538 0 0 0
1143 1 27.146060115044534 7.099775500477543 1.8825382125706034 0 0 0
1144 1 24.300430931550952 6.143543938140878 1.9257462227563011 0 0 0
1145 1 26.25463575925931 5.304812427465432 3.9244681654130686 0 0 0
1146 1 25.274285792297192 8.11728786243834 3.8573853305315833 0 0 0
60 1 2.9495746885684384 10.073607791248666 3.8221331774790035 0 0 0
61 1 2.0070595890932346 12.862884958714748 3.8226378516738566 0 0 0
62 1 1.0754229621226172 10.98512134451301 1.8064948078842964 0 0 0
63 1 3.860391650617136 11.938085698149541 1.7832326585646008 0 0 0
64 1 0.13818516886460414 13.817738706373087 1.7942360495988139 0 0 0
66 1 5.730326990741017 11.062579004871552 3.794481281810955 0 0 0
67 1 8.491122090474162 12.04191347656062 3.784432471846412 0 0 0
68 1 7.573375269456182 10.14498507455079 1.7432154065997336 0 0 0
69 1 6.618106227639483 12.959186441337385 1.7574209788728703 0 0 0
76 1 4.789572360795021 13.8471385799206 3.814059089878411 0 0 0
1264 1 9.387184642146128 13.95028014686053 1.7463488900382678 0 0 0
1260 1 12.231333054729056 10.191769913967299 3.7950092097247388 0 0 0
1261 1 11.278474179740043 12.950249516649281 3.7932859901207423 0 0 0
1262 1 10.341464867421388 11.163816183849267 1.7451807466984237 0 0 0
1263 1 13.178112430661447 11.93792469738254 1.7500419311216573 0 0 0
1266 1 15.046764806808705 11.016528270457743 3.7888251112313696 0 0 0
1267 1 17.824981440983773 11.960616630809708 3.7989294386936083 0 0 0
1268 1 16.942131356460013 10.0267236928389 1.799112821277418 0 0 0
1269 1 15.96317927005077 12.871038058311813 1.7608158249177088 0 0 0
1276 1 14.088588116850707 13.819967765273473 3.7798668097195165 0 0 0
1137 1 18.735351280219245 13.849620662428872 1.7619333868137104 0 0 0
1138 1 22.507864841323368 11.86157257890802 1.788945260584046 0 0 0
1139 1 19.686467343917663 11.052140657846913 1.7939563539720977 0 0 0
1140 1 20.61637958352552 12.867400577720414 3.81440217921155 0 0 0
1141 1 21.557745358187013 10.09578636848405 3.8446653247823206 0 0 0
1125 1 23.42142071308036 13.754836253124713 3.811116042364578 0 0 0
1132 1 25.283462628237725 12.820757373483803 1.7939282069518643 0 0 0
1133 1 26.219801586397814 9.969955869465995 1.8243240989743055 0 0 0
1134 1 27.1415068076691 11.901698516105418 3.8187026910607504 0 0 0
1135 1 24.36296746872869 10.946832873174438 3.822491163020311 0 0 0
75 1 4.587813210966857 18.763948437532814 2.138563521972397 0 0 0
70 1 0.09901532557783288 18.72534523620776 3.834420384907994 0 0 0
71 1 1.0344860246661698 15.62802326512248 3.8535430030597797 0 0 0
72 1 3.857045195562428 16.638058339041624 3.881221658886497 0 0 0
73 1 2.933812320174235 14.701695574174744 1.8195291326375664 0 0 0
74 1 1.9976250981886996 17.381585644053928 1.9075942675764008 0 0 0
77 1 6.618049695868977 17.469322031693125 3.880083279574282 0 0 0
78 1 7.546792496110311 14.796334993052753 3.81249713551259 0 0 0
79 1 5.650921968651116 15.774271193495345 1.8002131392494392 0 0 0
80 1 8.46236170296964 16.781270955165013 1.8698512152076985 0 0 0
1275 1 13.878222823342949 18.74914846298576 2.115489597925246 0 0 0
1271 1 10.298236387228847 15.69316146836302 3.8197757837557424 0 0 0
1272 1 13.14875453753553 16.610505961788153 3.825251552700213 0 0 0
1273 1 12.220527304528567 14.711451470279114 1.7740503135614136 0 0 0
1274 1 11.278881786675885 17.40285918630624 1.8651309865350456 0 0 0
1277 1 15.927568053139979 17.428773300402565 3.8266529036976142 0 0 0
1278 1 16.864166319961537 14.735217332975463 3.794644620630723 0 0 0
1279 1 14.977387386340112 15.702769198340153 1.7712692862911001 0 0 0
1280 1 17.80901224148532 16.684147727022246 1.8629004919265317 0 0 0
1126 1 23.21357313357831 18.700699901663956 2.154713951152161 0 0 0
1127 1 20.621087128552603 17.350573856243454 1.9015199957683582 0 0 0
1128 1 21.562085541050998 14.647961382390788 1.8025345590640718 0 0 0
1129 1 22.490289719313626 16.549750045964277 3.8553343711276264 0 0 0
1130 1 19.632977545800497 15.614221190768365 3.8230490068995198 0 0 0
1131 1 18.68614503919098 18.725276949081355 3.7873024695947435 0 0 0
1121 1 27.120936872588512 16.66357881842444 1.8958491521366816 0 0 0
1122 1 24.31162181388196 15.653814059021265 1.8064939903594213 0 0 0
1123 1 26.19265116529582 14.689895207380864 3.829944184577519 0 0 0
1124 1 25.254073624457032 17.383369825008455 3.872160661325216 0 0 0
81 1 1.765029668150152 -17.72645258559749 5.858225650857419 0 0 0
82 1 2.6290599049725394 -15.05948217995094 5.890141178090905 0 0 0
83 1 3.5945925307829905 -17.128198056420104 7.913624567273158 0 0 0
86 1 0.7311601985331722 -16.06744292850413 7.924753424345512 0 0 0
88 1 5.397694341446388 -15.980005889039939 5.876103011358703 0 0 0
89 1 8.26757981082548 -17.07675834819368 5.851046296721007 0 0 0
90 1 6.390721595980393 -17.694932186599274 7.866849343173137 0 0 0
91 1 7.291143475451113 -15.062117358127695 7.929854363614068 0 0 0
1281 1 11.046088569846974 -17.697835948548764 5.8205744164439635 0 0 0
1282 1 11.914347053936872 -15.038768048799989 5.849404153426231 0 0 0
1283 1 12.860514383667873 -17.157983485527158 7.88630466558635 0 0 0
1286 1 10.034110158539049 -16.03096850690653 7.900637849044127 0 0 0
1288 1 14.65491104918083 -15.992728306250013 5.821023098881302 0 0 0
1289 1 17.569652552659488 -17.12024365413107 5.823321428650947 0 0 0
1290 1 15.630911605322586 -17.733252158103014 7.769034879215739 0 0 0
1291 1 16.564026552663286 -15.107287724994805 7.865004164644521 0 0 0
1115 1 19.337638022376137 -16.075717896570083 7.869486594782161 0 0 0
1118 1 22.175131720286256 -17.189162071615193 7.8260836127032825 0 0 0
1119 1 21.228942319645892 -15.084036991724629 5.843362256844476 0 0 0
1120 1 20.342160439293732 -17.75083648114917 5.786327140079268 0 0 0
1110 1 25.86582345076982 -15.13290681347598 7.945930947249246 0 0 0
1111 1 24.97257733844066 -17.76444019385265 7.862107260185494 0 0 0
1112 1 26.880589700521472 -17.128697236114323 5.874918176489041 0 0 0
1113 1 24.005095041122768 -16.035885757761537 5.859789382512818 0 0 0
101 1 4.459893562529784 -14.203564763354128 7.945823676626488 0 0 0
95 1 3.514866254820644 -12.295716227175944 5.875847401265674 0 0 0
96 1 1.644785211527518 -13.26423964183619 7.948652160111458 0 0 0
99 1 2.5520572569907207 -10.469285027433864 7.955854853622451 0 0 0
100 1 0.6972647021787847 -11.403033077799362 5.875897844845299 0 0 0
1302 1 9.103666262204047 -14.168938298646859 5.852777962836377 0 0 0
103 1 6.3161158387179785 -13.201390394441903 5.871079871998041 0 0 0
104 1 7.221985224153833 -10.406190671755374 5.8693306872312 0 0 0
106 1 8.165476943630127 -12.285077740859947 7.939493990277581 0 0 0
107 1 5.3597573369435185 -11.381157348511035 7.951393174363627 0 0 0
1301 1 13.740423466217361 -14.216908522470368 7.902170347072517 0 0 0
1295 1 12.807845317360004 -12.278571198928454 5.843577403499812 0 0 0
1296 1 10.945702763909965 -13.228696165057745 7.9220559457527315 0 0 0
1299 1 11.852158207837386 -10.432135024066822 7.928773677022147 0 0 0
1300 1 10.00648753084227 -11.345868656423288 5.855015338258567 0 0 0
1099 1 18.403585398537093 -14.20480700651699 5.830978491478528 0 0 0
1303 1 15.600981898586156 -13.221250669272731 5.834664568312488 0 0 0
1304 1 16.512014198929627 -10.426364109983373 5.84078002260518 0 0 0
1306 1 17.440310689713954 -12.318871193272452 7.8953421444524805 0 0 0
1307 1 14.641907998031876 -11.387675938672041 7.911950962913002 0 0 0
1100 1 23.030333972814628 -14.251898923329934 7.914500385223546 0 0 0
1101 1 19.304944321720793 -11.382291800898614 5.8386867362512325 0 0 0
1102 1 21.14239338178422 -10.486283412792309 7.933595619161668 0 0 0
1105 1 20.234374613430063 -13.268888886701747 7.901714452186027 0 0 0
1106 1 22.11301596661422 -12.316869915319472 5.848198450164326 0 0 0
102 1 27.70340522190962 -14.222216741964393 5.8796847362907005 -1 0 0
1094 1 23.937279921046546 -11.440108251738701 7.944776052320347 0 0 0
1095 1 26.74743952467781 -12.356577630563358 7.9512817980444614 0 0 0
1097 1 25.8111185362899 -10.476000659110326 5.871610264829126 0 0 0
1098 1 24.90954410717422 -13.260639058989634 5.871050612937784 0 0 0
111 1 4.416954417380877 -9.512492791994898 5.8810451803868835 0 0 0
112 1 1.6134671659229805 -8.605098911752444 5.880711836168422 0 0 0
113 1 2.5402375255258796 -5.812309417048462 5.895661578418194 0 0 0
115 1 0.6581587678581452 -6.810669105894115 7.983866468790931 0 0 0
116 1 3.4622737498601803 -7.675289066798983 7.976383259667224 0 0 0
118 1 4.369727715939947 -4.875493377701041 8.023095128173019 0 0 0
1309 1 9.06947099400612 -9.483764307921108 7.946360635656209 0 0 0
120 1 8.133163938936569 -7.599294060537124 5.890950368041409 0 0 0
121 1 5.324282652602082 -6.737076828602253 5.9047479293524905 0 0 0
122 1 6.270210429180112 -8.580574495055025 7.964867893869466 0 0 0
125 1 7.180558388003266 -5.773450218046153 8.00621708217313 0 0 0
1311 1 13.711974442687842 -9.488489847143711 5.854963913015118 0 0 0
1312 1 10.914911626455195 -8.538665131968637 5.869042689891023 0 0 0
1313 1 11.82286412157996 -5.743784795439594 5.903501445549294 0 0 0
1315 1 9.985307361324338 -6.66616034223222 7.967785050989242 0 0 0
1316 1 12.766498610588487 -7.641275515297662 7.948822680996585 0 0 0
1318 1 13.679127407925044 -4.845332464429582 7.990247509089268 0 0 0
1092 1 18.351971004539912 -9.543719983257827 7.9324509464354085 0 0 0
1320 1 17.431676172892633 -7.628612909123388 5.8691917294954 0 0 0
1321 1 14.626593037712883 -6.698369273902454 5.888929781002307 0 0 0
1322 1 15.56215021933134 -8.595436058625486 7.936384060172983 0 0 0
1325 1 16.49038960080837 -5.8006429345099475 7.972334529868709 0 0 0
1090 1 23.015289130777877 -9.53635487116173 5.868219524035315 0 0 0
1085 1 22.06088595811485 -7.696986111382454 7.956272615462583 0 0 0
1086 1 19.268662209777702 -6.767661533449024 7.964003161350499 0 0 0
1088 1 21.14981215424538 -5.792376421127861 5.883731257178218 0 0 0
1089 1 20.218496706939717 -8.585749679185115 5.862014663821997 0 0 0
1083 1 22.995699136713117 -4.904199144145957 7.985796210098274 0 0 0
109 1 27.65547255520556 -9.574548896683222 7.961105911858756 -1 0 0
119 1 27.65774500005349 -4.892954379674707 5.906444013295212 -1 0 0
1076 1 25.79110489003304 -5.871159648703552 7.98410113097497 0 0 0
1079 1 24.85776765668978 -8.650285113017508 7.960010508732484 0 0 0
1080 1 23.935461368717522 -6.752036262843101 5.89265713283883 0 0 0
1081 1 26.728804144629766 -7.6887985740111 5.884154563208725 0 0 0
127 1 3.509326313289615 -3.0295222719774837 5.901801036649584 0 0 0
128 1 0.6614906890949802 -2.0417880036218197 5.977607512518073 0 0 0
129 1 1.5657600767358368 -4.110049156014375 8.022539563360727 0 0 0
132 1 2.451226839099937 -1.5308492873074475 8.06793100446738 0 0 0
134 1 4.287361085209503 -0.23950734050293476 6.310052399147096 0 0 0
1319 1 9.043859631694238 -4.790251447650365 5.92169651242698 0 0 0
135 1 7.013844081563128 -1.3947433549243737 5.9922539107168005 0 0 0
136 1 6.222730076943888 -4.01805350492892 5.925734180482171 0 0 0
137 1 5.3105030883272155 -2.125600767812529 8.121057737666375 0 0 0
138 1 8.14141380987251 -2.992717115502577 8.068311332114954 0 0 0
1341 1 8.745069426063699 -0.1292935032065603 7.699862657363992 0 0 0
1327 1 12.78865317995132 -3.018095612932791 5.90947090193088 0 0 0
1328 1 9.92401907166839 -1.9987270272774695 5.9011893553840435 0 0 0
1329 1 10.906882512954335 -3.8126729877185257 8.005936513777238 0 0 0
1332 1 11.884982482409907 -1.0165800812329695 7.747151977117433 0 0 0
1082 1 18.381625838189837 -4.8218328679950195 5.894528018188438 0 0 0
1335 1 16.594899124769686 -1.2276686357379054 6.014049299330768 0 0 0
1336 1 15.576493883620172 -3.9310044643688404 5.93301058411037 0 0 0
1337 1 14.625208438350136 -2.0752894754775495 8.02617715011753 0 0 0
1338 1 17.494896811957275 -3.0386988165580444 8.002616881844224 0 0 0
1060 1 18.519787865260234 -0.13849926255401526 8.211778918256249 0 0 0
1334 1 13.933313532825409 -0.3144772814603899 5.907541253552539 0 0 0
1069 1 21.17690008363407 -1.4635561715014187 8.078519552570569 0 0 0
1072 1 20.20631856284556 -4.046967103352621 8.013818265803254 0 0 0
1073 1 19.36830469916743 -1.956721024113591 5.966570287572318 0 0 0
1074 1 22.116320087947823 -3.004873109520104 5.904645461784283 0 0 0
1067 1 23.00919282496055 -0.1483914617343413 6.0787625263230085 0 0 0
1063 1 26.761764814432745 -3.112600730966322 8.016811773400084 0 0 0
1064 1 23.938990341802334 -2.1030601800390545 8.051479259106396 0 0 0
1065 1 24.866235906284903 -3.970841784555632 5.934814061297637 0 0 0
1066 1 25.747060702504108 -1.2286879556529513 6.0545133807195795 0 0 0
141 1 27.71345196775135 -0.2818771930196435 8.185428396968186 -1 0 0
142 1 1.537918916717438 1.2858631226169785 5.51997230472387 0 0 0
143 1 2.411951763301752 1.1490281723850395 8.136024605264204 0 0 0
144 1 2.083976505511073 3.839707129895737 8.029946580225053 0 0 0
146 1 4.153565337368231 2.6690694399271364 6.440476218235763 0 0 0
156 1 0.16522889246659397 4.221167667566378 5.913116274147493 0 0 0
148 1 8.53186195207853 2.674033620295841 7.668498047299249 0 0 0
149 1 6.699473051479634 1.2551742515788527 5.603882483582141 0 0 0
150 1 6.685499982461105 3.9281835727085013 5.965956911330268 0 0 0
151 1 6.061131525198267 1.1466791147823885 8.37743528657932 0 0 0
1241 1 13.338658497277805 1.9439667276608288 4.405413294598436 0 0 0
1342 1 10.684912965542138 1.2912341336443363 5.792412221129834 0 0 0
1343 1 10.868687280938904 1.332030492291956 8.758050665046552 0 0 0
1344 1 11.295699299018608 3.8530756306303724 7.735631991301152 0 0 0
1346 1 13.261296935001383 1.974627275559336 7.253657545202604 0 0 0
1348 1 17.72567671724795 2.741031976048541 8.373989339367391 0 0 0
1349 1 17.571691244574513 1.3812407002846714 6.02314639994779 0 0 0
1350 1 15.700375621986852 3.3689927936306843 5.800363950979247 0 0 0
1351 1 15.625842580877896 0.7418613801690455 8.03577333195174 0 0 0
1045 1 18.660157593845085 4.246410307928813 6.003289798642399 0 0 0
1055 1 22.414507006466316 2.8471422926189778 6.257603246184762 0 0 0
1057 1 20.46549741025267 3.7124780538589306 8.167910939571513 0 0 0
1058 1 21.403966623177727 1.1410149916207784 8.217810135483798 0 0 0
1059 1 20.246628150468442 1.1544075203530528 5.567730590192197 0 0 0
1050 1 24.42526925477551 1.5571191140136733 7.984857540067919 0 0 0
1051 1 25.155453208757088 3.4752166039427124 5.734734118182628 0 0 0
1052 1 26.74739273960503 1.3246533754712 6.086568028241157 0 0 0
1053 1 27.4727340294601 2.655706138846873 8.336417252434345 0 0 0
1047 1 23.45147116283494 4.5890035755493335 8.097624492494102 0 0 0
157 1 3.0452532613713843 5.419635776669577 5.907476521040235 0 0 0
158 1 2.043927418334296 8.210784546905328 5.885965983747457 0 0 0
159 1 1.092420951267378 6.418420934690782 7.971025461548178 0 0 0
162 1 3.888660471054749 7.3536873164149315 8.00062087438816 0 0 0
177 1 0.17895202333960283 9.160078013524396 7.957322032215585 0 0 0
154 1 4.946099965187824 4.718246575704908 8.09402219942171 0 0 0
163 1 5.757910896433983 6.519357987060236 5.889966698874736 0 0 0
164 1 8.517974629959102 7.432183993528278 5.903150172410625 0 0 0
166 1 6.683449934487316 8.290417569102836 8.006589659714852 0 0 0
167 1 7.723958294712822 5.534818746509388 8.096979640191666 0 0 0
176 1 4.815494465874994 9.21398225149432 5.884752131869407 0 0 0
1356 1 9.41354371292759 4.746476092566562 5.884352122506349 0 0 0
1357 1 12.242688947180968 5.716783453342559 5.925325291765044 0 0 0
1358 1 11.291208767843838 8.40055832131264 5.892052292425296 0 0 0
1359 1 10.397359704691327 6.545871730797677 8.01395921440037 0 0 0
1362 1 13.196013838142276 7.453059145327243 7.988544474084359 0 0 0
1377 1 9.4556531388355 9.299823844127303 7.977302939348336 0 0 0
1354 1 14.106360045686756 4.628691171580512 7.936757612163451 0 0 0
1363 1 15.063499630121678 6.460055825558361 5.929619981837845 0 0 0
1364 1 17.844329611948883 7.299628458699186 5.945177887945759 0 0 0
1366 1 15.988895997573595 8.323988268129437 7.980567734609627 0 0 0
1367 1 16.874409896352933 5.467299244210564 7.980693964815806 0 0 0
1376 1 14.118401794861397 9.248791278135341 5.893811417220497 0 0 0
1039 1 22.477772637501435 7.347108471656074 8.01095091277961 0 0 0
1042 1 19.63359632928095 6.4512075201286985 8.040754205246916 0 0 0
1043 1 20.609062504789364 8.283401806925763 5.936205036412995 0 0 0
1044 1 21.433876937688897 5.4914626575332965 6.034118293764197 0 0 0
1024 1 18.7638045574751 9.250839760676069 7.985669237824529 0 0 0
1025 1 23.429355588920785 9.1399456977684 5.913731097469196 0 0 0
1034 1 26.264137714214964 5.325970256506249 7.939852342348454 0 0 0
1035 1 25.309104479572735 8.185062998810599 7.968117007785788 0 0 0
1037 1 27.15381417822804 7.202281356120711 5.907808524195116 0 0 0
1038 1 24.317439194050316 6.313922793243606 5.933912056907798 0 0 0
169 1 1.0981093550437209 11.006193994624809 5.877318306949872 0 0 0
170 1 3.8837783188934094 11.973666864191989 5.879656956802111 0 0 0
172 1 2.961644268325647 10.117959287188572 7.964383041780014 0 0 0
173 1 2.0290008002321276 12.907247332060594 7.943011825108916 0 0 0
175 1 0.14841761388851132 13.814182852411339 5.877252826149952 0 0 0
179 1 7.5837147064220085 10.173485127094173 5.8797973227822276 0 0 0
180 1 6.649319214735065 12.94459149880164 5.879269311239576 0 0 0
181 1 5.745995248977097 11.08786777682538 7.966518414306449 0 0 0
184 1 8.524870971531477 12.0620063994126 7.957784979436848 0 0 0
193 1 4.811411808175754 13.903953301688015 7.945361914744902 0 0 0
1369 1 10.3579664133997 11.145006365884667 5.867407360401247 0 0 0
1370 1 13.170697604300992 12.020268201030564 5.862122261194354 0 0 0
1372 1 12.250719808958994 10.234039567964887 7.959684595704502 0 0 0
1373 1 11.304855088756455 13.007585851063517 7.942147562002666 0 0 0