LAMMPS data file via write_data, version 29 Sep 2021, timestep = 5584

1800 atoms
2 atom types

0.28165476595148925 27.743701277947075 xlo xhi
-18.67867551738502 18.67867551738502 ylo yhi
0.7376967170494048 31.274550587470774 zlo zhi

Masses

1 107.8682
2 58.6934

Atoms # atomic

1 1 1.7763120221524382 -17.317689012342033 1.273378413778332 0 0 0
2 1 2.666406497947001 -14.657385460670797 1.428056514330384 0 0 0
3 1 3.607994625678464 -16.719897678847925 3.4834921992388987 0 0 0
4 1 0.8572802275953724 -15.587054320968074 3.447964698010509 0 0 0
5 1 5.303391039970889 -15.714668861446551 1.3583274858308505 0 0 0
6 1 8.10919248355624 -16.453242304775294 1.278118058069071 0 0 0
7 1 6.407766066527169 -17.288744604900415 3.4015746359405004 0 0 0
8 1 7.274103460802134 -14.709648376697853 3.487319346495046 0 0 0
1270 1 9.07545482915052 -18.225710407724755 3.300445636134823 0 1 0
1201 1 10.89358829075998 -17.236086071743763 1.1464903966037354 0 0 0
1202 1 11.828440315356357 -14.607482832181494 1.3745480753169002 0 0 0
1203 1 12.767598062915456 -16.687359539631757 3.359529417109205 0 0 0
1204 1 9.998960429659729 -15.596041687880847 3.378504887993219 0 0 0
1205 1 14.488413755757769 -15.674817625996656 1.3053445360601748 0 0 0
1206 1 17.277321912285252 -16.466672437048732 1.2695540519027022 0 0 0
1207 1 15.538168774957258 -17.288853192657964 3.375982525514475 0 0 0
1208 1 16.398131274888776 -14.689637082757777 3.4459352820411677 0 0 0
1131 1 18.197385436212755 -18.241102582935653 3.3089981650701117 0 1 0
1197 1 19.125743745673038 -15.588011659949887 3.3648695824847623 0 0 0
1198 1 21.897311908576906 -16.5606108964458 3.3342695778435383 0 0 0
1199 1 20.972149641095136 -14.600483082400846 1.3407530745958212 0 0 0
1200 1 20.065165558413995 -17.290419475059657 1.1917344469036752 0 0 0
1193 1 25.591128532276098 -14.612037981337847 3.466719316532543 0 0 0
1194 1 24.7317401141245 -17.24002790387138 3.4737827514888164 0 0 0
1195 1 26.48428855325062 -16.475085022326812 1.3645460320306377 0 0 0
1196 1 23.707691299990806 -15.618426551600807 1.354564177876203 0 0 0
70 1 27.338570468425978 -18.232413677992252 3.4801372389190774 -1 1 0
9 1 4.493655095048988 -13.909832186350364 3.5039370207670046 0 0 0
10 1 3.5837776450491425 -11.961434490251072 1.4465430548867455 0 0 0
11 1 1.763513305923582 -12.866053496630748 3.511385510641045 0 0 0
12 1 2.6515394809328043 -10.121319844659782 3.5275273233552373 0 0 0
13 1 0.845047830228172 -10.997967453718767 1.4383141303064984 0 0 0
1214 1 9.066513927958349 -13.75842303606972 1.3672202803815154 0 0 0
15 1 6.291990836300643 -12.966133709176297 1.4259411631234433 0 0 0
16 1 7.189729440756407 -10.182610893701053 1.4565845958577814 0 0 0
17 1 8.136528875210974 -12.009445195461783 3.521154295580757 0 0 0
18 1 5.38392163500825 -11.125385392212506 3.528442902268677 0 0 0
1209 1 13.627355437377563 -13.88553590335401 3.470478690456441 0 0 0
1210 1 12.711753503431112 -11.918411977020142 1.439296967565479 0 0 0
1211 1 10.882238589147368 -12.896856253062948 3.50921943652294 0 0 0
1212 1 11.7684835007369 -10.15138313567052 3.539340961910072 0 0 0
1213 1 9.957925146110188 -11.036037921966955 1.4479061277421228 0 0 0
1187 1 18.20095148446997 -13.743159981932118 1.3480715095526414 0 0 0
1215 1 15.426285292118148 -12.911711454786467 1.3997145633885426 0 0 0
1216 1 16.343861056435145 -10.135607652436182 1.4543008851011734 0 0 0
1217 1 17.277630182801452 -11.984954393822221 3.4959120671627315 0 0 0
1218 1 14.519741238634195 -11.102232478186172 3.519042688467684 0 0 0
1188 1 19.11252949998432 -11.015159999198985 1.434332426857575 0 0 0
1189 1 20.937849154931275 -10.137635947933367 3.5250931453182135 0 0 0
1190 1 20.030276408941646 -12.880673322325327 3.4798422812260985 0 0 0
1191 1 21.87490020647 -11.896632240249732 1.414417430230424 0 0 0
1192 1 22.788334609649585 -13.791935260721472 3.4444973900488423 0 0 0
14 1 27.395916406007366 -13.734058320327177 1.3889148789772727 -1 0 0
1183 1 23.703616017152193 -11.041283391584487 3.5026041300959574 0 0 0
1184 1 26.47748141130935 -11.907734514051802 3.4945327960234374 0 0 0
1185 1 25.54065126467367 -10.069570960969111 1.4380797628663236 0 0 0
1186 1 24.62713955181154 -12.841091849943783 1.3992072126055346 0 0 0
19 1 1.7187073324850763 -8.245990441925771 1.4597960240409713 0 0 0
20 1 2.6021702222494665 -5.4961322511802395 1.4876346828629083 0 0 0
21 1 0.7762561547579598 -6.398691323407595 3.532949885615588 0 0 0
22 1 3.529094661155222 -7.363044824577531 3.543796453060419 0 0 0
24 1 4.453712035743517 -9.22495616534895 1.4619812727520016 0 0 0
1225 1 9.009890257272575 -9.245526529414295 3.5365621815026587 0 0 0
27 1 8.088238997304265 -7.393470746091461 1.457735625117358 0 0 0
28 1 5.327551965087017 -6.483947248278035 1.4746972706068917 0 0 0
29 1 6.263737426262505 -8.349565092305646 3.538790293878941 0 0 0
30 1 7.161543149498277 -5.600158461693484 3.5370342599913367 0 0 0
1219 1 10.84739841338729 -8.293949679308827 1.4709354771123453 0 0 0
1220 1 11.744123114192874 -5.534423627561591 1.4957185166813785 0 0 0
1221 1 9.897746855099378 -6.4825176093184025 3.5386143349764962 0 0 0
1222 1 12.65927582201638 -7.39672099691143 3.5550977572159264 0 0 0
1224 1 13.602091805021796 -9.192528002998207 1.471866666660849 0 0 0
1176 1 18.174065796984333 -9.229068520062016 3.533580518623112 0 0 0
1227 1 17.255284710731235 -7.346377631773595 1.4930568599499785 0 0 0
1228 1 14.496811764330745 -6.43970100868851 1.5101150375268 0 0 0
1229 1 15.416898817391974 -8.327799461658548 3.5481328991010876 0 0 0
1230 1 16.316544234867813 -5.552763732662411 3.5817553551979344 0 0 0
1177 1 22.770091210380844 -9.173365782350023 1.4587735307518013 0 0 0
1179 1 21.83105485699048 -7.371436230684089 3.552994196295398 0 0 0
1180 1 19.066437193685527 -6.451448252791141 3.566637854375218 0 0 0
1181 1 20.87094285148957 -5.49581353613017 1.5353899257875174 0 0 0
1182 1 20.01122720521554 -8.268334053375318 1.4810849402648054 0 0 0
25 1 27.360829734434457 -9.1575646296583 3.514529116294345 -1 0 0
1171 1 25.485767306924046 -5.522945792625462 3.543480957561972 0 0 0
1172 1 24.59599162238155 -8.27709960460095 3.52535012561545 0 0 0
1173 1 23.629132496306166 -6.422004235348473 1.4923955640918616 0 0 0
1174 1 26.426425875326167 -7.276768485136332 1.4546361377263552 0 0 0
23 1 4.437730601996521 -4.594468342968086 3.570658359362786 0 0 0
31 1 3.492507401691021 -2.76192802369056 1.5799218710726548 0 0 0
32 1 1.6652556074015716 -3.6531846553624945 3.568260404474859 0 0 0
33 1 2.545677469557989 -0.8995123805697898 3.72882157254725 0 0 0
34 1 0.8580070545771821 -1.5643234041475405 1.5467203293330936 0 0 0
35 1 4.22655064752225 -0.06608426029281637 1.3625405566122264 0 0 0
1226 1 8.988301624990038 -4.574805779947666 1.4532122904435063 0 0 0
36 1 7.066750468034996 -1.0712540881153703 1.3572426152033663 0 0 0
37 1 6.18330038035012 -3.748934807268529 1.494481829305141 0 0 0
38 1 5.3226108167865664 -1.6150648594744774 3.5646400886338965 0 0 0
39 1 8.007503144174724 -2.8415171372351393 3.512941497284207 0 0 0
1240 1 8.76312496141781 -0.07111838704291733 3.570894245892977 0 0 0
1223 1 13.547503086433412 -4.61829360437709 3.5922662578509814 0 0 0
1231 1 12.613197376109127 -2.7490603305799297 1.5998307388760202 0 0 0
1232 1 10.766261501547328 -3.7193718401753304 3.546031176985908 0 0 0
1233 1 11.621387927901862 -0.9298322267578005 3.685370106087209 0 0 0
1234 1 9.89844612728407 -1.664411318331338 1.5217626596516678 0 0 0
1235 1 13.490214296663215 -0.04708287888220018 1.4685572976769492 0 0 0
1175 1 18.124709629914367 -4.5170137083419855 1.5466691765209113 0 0 0
1236 1 16.203365244631367 -0.9672836545191315 1.6229970410061114 0 0 0
1237 1 15.34137408378466 -3.6610421450888238 1.606892788022029 0 0 0
1238 1 14.392322958256557 -1.68225937741691 3.6907226809699645 0 0 0
1239 1 17.187167563396727 -2.740773975054215 3.647358669972273 0 0 0
1161 1 18.18533974210931 -0.08247484505710388 3.564642577185256 0 0 0
1178 1 22.71887616990873 -4.5761659428931685 3.5920729373824583 0 0 0
1167 1 19.0791517299839 -1.69882223176081 1.4929363961156736 0 0 0
1168 1 20.920471176856395 -0.9430877989570401 3.6432995153085046 0 0 0
1169 1 19.924271411859525 -3.640565725253525 3.615150091904677 0 0 0
1170 1 21.790156757979577 -2.770705570693145 1.5886983590739325 0 0 0
1166 1 22.67914360508973 -0.11025550484077766 1.2977778183869764 0 0 0
26 1 27.33043087864934 -4.452683085714597 1.469158117546431 -1 0 0
1162 1 26.372686737679604 -2.7707356552101974 3.5575690855830815 0 0 0
1163 1 23.713182133633044 -1.5787777683169817 3.591115194994309 0 0 0
1164 1 24.500859306955515 -3.685852328490292 1.546245542143282 0 0 0
1165 1 25.510964249946877 -1.0680239216498004 1.34436417657579 0 0 0
40 1 27.107251958609723 -0.030889660740843934 3.6072377779034324 -1 0 0
41 1 4.084883771928582 1.409174019524464 3.800697235331728 0 0 0
42 1 2.508678661283926 3.7016094037979874 3.712839104842151 0 0 0
43 1 1.8020954863625853 1.393293476860794 2.190784819533281 0 0 0
44 1 4.218385603239477 2.8567241064699846 1.3564227169604248 0 0 0
54 1 0.8048440257637123 4.377489625243081 1.5353362736657574 0 0 0
45 1 8.751587296787557 2.815043719047147 3.5701733499326243 0 0 0
46 1 6.4469916412207295 1.3712768164517024 2.6066438872288535 0 0 0
47 1 8.524286971332156 1.3851713859421617 0.81729161435209 0 0 0
48 1 7.04437276635857 3.8216689831833426 1.365133994032221 0 0 0
49 1 5.2859129561306695 4.399337334653586 3.566906381376241 0 0 0
1241 1 13.098829960157525 1.4138292931312162 3.796138241433038 0 0 0
1242 1 11.57194847911184 3.7104011335285842 3.673201484806713 0 0 0
1243 1 10.9114317831844 1.3704767088846275 2.103113155979831 0 0 0
1244 1 13.413122749359937 2.8514791464116236 1.4362866657544728 0 0 0
1254 1 9.869516296334782 4.407694493139214 1.503608532495275 0 0 0
1245 1 18.161140456391067 2.801862005568045 3.560148326368516 0 0 0
1246 1 15.738042530914141 1.3228312048035027 3.446244971023669 0 0 0
1247 1 17.6268246934608 1.3636418751663557 1.1027010996458482 0 0 0
1248 1 16.152040003119083 3.65869111327906 1.6533589668477067 0 0 0
1249 1 14.338941196946836 4.4355736950713 3.688539642376291 0 0 0
1147 1 19.035814255442013 4.424043088965282 1.489708039562503 0 0 0
1157 1 22.64496217877608 2.888878152245166 1.2972639699879724 0 0 0
1158 1 20.234566949644822 1.366285029151568 2.0399346318628964 0 0 0
1159 1 20.88300491438641 3.6904328394259927 3.6381510003433406 0 0 0
1160 1 22.533574385764293 1.3849810579990156 3.7005672881245752 0 0 0
1152 1 23.65683718155326 4.382897664023448 3.5813422399835133 0 0 0
1153 1 25.455719642127583 3.899104267603853 1.3381972973479217 0 0 0
1154 1 26.978329095198283 1.433092376004098 0.7439763023491482 0 0 0
1155 1 24.86662984123173 1.4090236549482111 2.4528528014342887 0 0 0
1156 1 27.089237095196086 2.834821934757867 3.596710529530907 0 0 0
50 1 1.6077538803321236 6.452343108214089 3.5655753185043184 0 0 0
51 1 4.385368738441926 7.348453364763013 3.5725959804356853 0 0 0
52 1 3.441245469578672 5.549111634350707 1.5694639152131937 0 0 0
53 1 2.5287994932177678 8.286723075536468 1.48703200462116 0 0 0
59 1 0.7029704532188721 9.202886382332334 3.5474434197127 0 0 0
55 1 7.116052425655132 8.320655337866468 3.5394939109027015 0 0 0
56 1 7.983990101625193 5.577997644089697 3.5143160978676966 0 0 0
57 1 6.143941515415887 6.490754330721914 1.4978712100592833 0 0 0
58 1 8.947408670256216 7.3041141712908555 1.4462481002119452 0 0 0
65 1 5.269593486334992 9.218399619504394 1.4680763355184487 0 0 0
1250 1 10.722069690737632 6.486641608074632 3.545960745466366 0 0 0
1251 1 13.49917314862187 7.373470145539705 3.581683917053235 0 0 0
1252 1 12.55393554935155 5.546177625117422 1.5827939293930389 0 0 0
1253 1 11.671788984268746 8.324479659434875 1.4842335426653428 0 0 0
1259 1 9.835395005910197 9.241923620994779 3.537647927116386 0 0 0
1255 1 16.273947215922576 8.265275896755151 3.573973016278689 0 0 0
1256 1 17.152105105256293 5.459502351025895 3.6460067783248453 0 0 0
1257 1 15.304811942597198 6.377975243857591 1.6049178775245696 0 0 0
1258 1 18.090191214445454 7.237458574443726 1.544177032902398 0 0 0
1265 1 14.441307664534095 9.180147765915043 1.4918830382936104 0 0 0
1148 1 20.80902900667629 8.285125816669638 1.536282962968083 0 0 0
1149 1 21.731042534000117 5.547388046529675 1.5820293544986508 0 0 0
1150 1 22.654424661268333 7.3655228766702106 3.587302909179936 0 0 0
1151 1 19.87970774821351 6.385278177043506 3.614327970669958 0 0 0
1142 1 19.014062040833338 9.19356523522686 3.5725680003291087 0 0 0
1136 1 23.546805739595428 9.276841790651947 1.5009679522993715 0 0 0
1143 1 27.261799866403337 7.26388373308993 1.4714535475483597 0 0 0
1144 1 24.429892972874594 6.51790774737244 1.5361208845834762 0 0 0
1145 1 26.316243846538377 5.5733949826935865 3.5500408016510656 0 0 0
1146 1 25.41553990779437 8.32240916408599 3.549611804844585 0 0 0
60 1 3.4667451921972936 10.093693003011749 3.5496438477971646 0 0 0
61 1 2.6051318294953942 12.802085561311939 3.5416783821863844 0 0 0
62 1 1.6237957705678596 11.045187942659537 1.4662855438348297 0 0 0
63 1 4.376749948711259 11.957364413003408 1.4460974580517343 0 0 0
64 1 0.7252018185952867 13.8211303679343 1.4642056378960802 0 0 0
66 1 6.202384107255066 11.04287592272941 3.5418013350763697 0 0 0
67 1 8.926061656448107 12.002506447340565 3.544019989030107 0 0 0
68 1 8.032147660081684 10.103297220651022 1.4543449631628553 0 0 0
69 1 7.118757829983333 12.860560073846742 1.4515529562784557 0 0 0
76 1 5.336491113540447 13.771786755804095 3.5313711616352057 0 0 0
1264 1 9.811091284825233 13.869927209972346 1.4684315826481156 0 0 0
1260 1 12.59074599571981 10.148292568733625 3.5352937851404733 0 0 0
1261 1 11.683033335113896 12.889800161778725 3.529274961064336 0 0 0
1262 1 10.747415378576315 11.09633023172001 1.462708133677449 0 0 0
1263 1 13.514850447928856 11.973312477721114 1.4480582174641363 0 0 0
1266 1 15.353864192969318 11.015491368998555 3.5342239067531525 0 0 0
1267 1 18.097484799149456 11.96851306880907 3.5541926564767503 0 0 0
1268 1 17.217537270694383 10.052866788975788 1.491837248563052 0 0 0
1269 1 16.30185662111869 12.823390370500784 1.4647391249349035 0 0 0
1276 1 14.456600981824892 13.748955306879218 3.5075182715513304 0 0 0
1137 1 19.01068870364299 13.864160309620171 1.5317893615072642 0 0 0
1138 1 22.656032054495792 12.082271760726085 1.496947085033566 0 0 0
1139 1 19.9325687786332 11.080923394873395 1.5114684914576537 0 0 0
1140 1 20.86177432548149 12.928460105269384 3.5890129010031386 0 0 0
1141 1 21.762924751459078 10.164762411901412 3.5616736055298905 0 0 0
1125 1 23.632795780215453 13.805878981091178 3.5751469990697142 0 0 0
1132 1 25.451029981004012 12.867717665723045 1.484295039940428 0 0 0
1133 1 26.35081071706409 10.085792903155658 1.4760495477952558 0 0 0
1134 1 27.28541434589213 11.97523977227022 3.5495864387144214 0 0 0
1135 1 24.5244749019663 11.072843515421818 3.5520163593492677 0 0 0
71 1 1.7895209160013796 15.433853011985951 3.5421911931463117 0 0 0
72 1 4.45724000849803 16.417929767773497 3.594374080352612 0 0 0
73 1 3.532706767308569 14.725947675422951 1.4454864278799628 0 0 0
74 1 2.367539833876457 18.1052792841347 3.1185435586371715 0 0 0
75 1 4.804919193528245 18.552253620257012 1.6952518386866517 0 0 0
77 1 6.9976268774545165 17.380147962374036 3.4422451491923773 0 0 0
78 1 8.02937242747431 14.75759396320981 3.545186483049966 0 0 0
79 1 6.288581822432851 15.625039420025269 1.3951929867043913 0 0 0
80 1 9.146738901643584 16.77665307239566 1.66011201760472 0 0 0
1271 1 10.770525214479536 15.565105111168808 3.611042293202785 0 0 0
1272 1 13.560162754051682 16.39792945078056 3.560738889007182 0 0 0
1273 1 12.57011107268958 14.776242829112174 1.4771160654308757 0 0 0
1274 1 11.568029330373077 18.12779565418171 2.9151834477943193 0 0 0
1275 1 14.04236089529721 18.53040927722939 1.6129850910676913 0 0 0
1277 1 16.11127156119054 17.361888293805816 3.4192182691974318 0 0 0
1278 1 17.171979871071944 14.73815745483186 3.544707632856607 0 0 0
1279 1 15.397431121369427 15.576452714675401 1.3921599026145528 0 0 0
1280 1 18.33569034831578 16.755491848614277 1.7101401862023038 0 0 0
1127 1 20.730736420821554 18.178326543544927 3.104038191126373 0 0 0
1128 1 21.712214442237613 14.909987790816777 1.5898364060864836 0 0 0
1129 1 22.7043410410521 16.443618744145688 3.7425574459797843 0 0 0
1130 1 19.921818701436084 15.6022183507294 3.726465134532779 0 0 0
1126 1 23.176251338300276 18.56293290794713 1.762528932509326 0 0 0
1121 1 27.473827979291496 16.78219777053322 1.8033118311223582 0 0 0
1122 1 24.526366907414584 15.629998265172583 1.48395205965099 0 0 0
1123 1 26.389437276635395 14.727123499281793 3.548535560040518 0 0 0
1124 1 25.26362758110132 17.370046671701957 3.527815350822327 0 0 0
81 1 1.6747359261358215 -17.46156475286699 5.452252512071757 0 0 0
82 1 2.694430414612166 -14.81249575627578 5.599492525954975 0 0 0
83 1 3.539615235988368 -17.24582685407677 7.573098071936671 0 0 0
86 1 0.9193241279901786 -15.727028072992248 7.6804347144415415 0 0 0
101 1 4.503667789742165 -14.042793348668518 7.714039201557019 0 0 0
88 1 5.405017318494615 -15.769744937097204 5.588938382869007 0 0 0
89 1 8.151036162252462 -16.921664781190128 5.690217006314612 0 0 0
90 1 6.28727426375967 -17.35370745841661 7.742132216012139 0 0 0
91 1 7.304145047243699 -14.82788214193138 7.743223991445006 0 0 0
1281 1 10.898964050167907 -17.45362663234019 5.315285939425582 0 0 0
1282 1 11.82749126865322 -14.821412385343407 5.563756391747227 0 0 0
1283 1 12.753274372217238 -17.24220279803839 7.46639293494082 0 0 0
1286 1 10.073173908957436 -15.828339449297772 7.685523222220828 0 0 0
1301 1 13.586574743783626 -14.026097330662022 7.690445497075385 0 0 0
1288 1 14.527822508289516 -15.760870084908623 5.553049538230856 0 0 0
1289 1 17.300923989954377 -16.777842443637272 5.574507531334179 0 0 0
1290 1 15.557262780062715 -17.37473120869783 7.659142960503371 0 0 0
1291 1 16.389847253009595 -14.783057506468314 7.717241268104774 0 0 0
1119 1 20.94084481156633 -14.776610972874607 5.561201548071153 0 0 0
1120 1 20.040909586370894 -17.43680129650158 5.329124398540017 0 0 0
1114 1 23.01188172419655 -18.45586691745602 5.270073411370952 0 1 0
1115 1 19.094211631752287 -15.78350245080845 7.672432740946184 0 0 0
1118 1 21.735416758574363 -16.956750039763694 7.540622143589222 0 0 0
1015 1 18.861744075043678 -18.674565540120383 7.666255877570159 0 1 0
1112 1 26.461502594012916 -16.516048000589763 5.657968936744741 0 0 0
1113 1 23.66401051686433 -15.593979069774546 5.516554846184402 0 0 0
1110 1 25.590569087557054 -14.643903054884886 7.714430887156735 0 0 0
1111 1 24.44612011832162 -17.175198505378038 7.679271699506687 0 0 0
95 1 3.5806677336875485 -12.045357388742783 5.626305477092916 0 0 0
100 1 0.8346222648765367 -11.028985695644435 5.615415421779168 0 0 0
96 1 1.7746132874877307 -12.91613592391812 7.699636181467797 0 0 0
99 1 2.6454199691862494 -10.155548689678879 7.746509798024906 0 0 0
1302 1 9.058534121087805 -13.985663818224408 5.613423454638877 0 0 0
103 1 6.314042045860606 -12.997758183017114 5.636919160722209 0 0 0
104 1 7.189346089139708 -10.203928991580504 5.649894158418793 0 0 0
106 1 8.12381041127122 -12.081786720626322 7.747852669091973 0 0 0
107 1 5.371610087574904 -11.171895985612018 7.7470686718863115 0 0 0
1295 1 12.696714917844782 -12.057711966900648 5.61956312939017 0 0 0
1300 1 9.929683796715214 -11.142819319945628 5.636023955828074 0 0 0
1296 1 10.859170005916463 -13.004244306454757 7.706798255031818 0 0 0
1299 1 11.754183546976048 -10.236827677070735 7.756998494871488 0 0 0
1099 1 18.18381702076815 -13.925549803648641 5.5816808206366355 0 0 0
1303 1 15.434072167296144 -12.986383096400603 5.607656091416188 0 0 0
1304 1 16.335833254471044 -10.207984773434955 5.6350942913005175 0 0 0
1306 1 17.270104954248108 -12.078254038927888 7.732829890890148 0 0 0
1307 1 14.502544559860814 -11.196907998206633 7.740002427494232 0 0 0
1101 1 19.092758136670124 -11.127068857420408 5.618759880597229 0 0 0
1106 1 21.86176083724482 -12.026500997871949 5.6089371245178326 0 0 0
1100 1 22.764073238306086 -13.949112426632604 7.694632733115979 0 0 0
1102 1 20.91563108051158 -10.220576494277106 7.743448792916356 0 0 0
1105 1 20.010249247490542 -12.99754101596624 7.705512885782409 0 0 0
102 1 27.41782115044373 -13.795498428956225 5.603382719811113 -1 0 0
1097 1 25.526540513025143 -10.116797374105973 5.620185520029087 0 0 0
1098 1 24.630364968325747 -12.880169097027235 5.600143040372383 0 0 0
1094 1 23.67531700497441 -11.109498908017928 7.723224566489642 0 0 0
1095 1 26.47340382075023 -11.934915005972877 7.714894896976916 0 0 0
111 1 4.449980189548099 -9.270393654412937 5.6493300606469825 0 0 0
112 1 1.7126252807604552 -8.276751932951221 5.639918340150104 0 0 0
113 1 2.600796837486737 -5.532923788852558 5.6599392672936775 0 0 0
115 1 0.7600398939137214 -6.496419210968355 7.7913364729801735 0 0 0
116 1 3.5216868048175733 -7.400508460491938 7.7887737153768715 0 0 0
120 1 8.076270831684484 -7.428631890023994 5.6729650775200815 0 0 0
121 1 5.329499390411215 -6.53097181239004 5.677362372362923 0 0 0
1309 1 9.004466011425665 -9.319617429335118 7.784851632617989 0 0 0
122 1 6.265312989081779 -8.372004405844203 7.791419625406883 0 0 0
125 1 7.161989390353397 -5.584200374192666 7.836622061386186 0 0 0
1311 1 13.58175307363309 -9.285397485246074 5.650098454604509 0 0 0
1312 1 10.817753112121952 -8.364870204368264 5.6580688633477205 0 0 0
1313 1 11.701953806904656 -5.610055252283501 5.661258192960159 0 0 0
1315 1 9.880212627043763 -6.568835143052368 7.812777962410528 0 0 0
1316 1 12.63622409716104 -7.466612641604237 7.7832602948891205 0 0 0
1318 1 13.526663389429284 -4.718423839073256 7.7974435659073835 0 0 0
1320 1 17.23502627529787 -7.427562806576335 5.657885626334234 0 0 0
1321 1 14.47030877085253 -6.51705982175101 5.667658375333337 0 0 0
1092 1 18.15729912581814 -9.323185116883803 7.755754708707495 0 0 0
1322 1 15.398826611150715 -8.40101033929016 7.764091545152004 0 0 0
1325 1 16.299508282251622 -5.61944092130566 7.776104858414308 0 0 0
1090 1 22.757046167629046 -9.251653486145822 5.6357591748755045 0 0 0
1088 1 20.895827075626645 -5.580121491151532 5.662856228936939 0 0 0
1089 1 19.99357561993772 -8.350603151518273 5.645198328818732 0 0 0
1085 1 21.815299079357164 -7.448042490222536 7.775017369100219 0 0 0
1086 1 19.0461826368168 -6.575894769651878 7.776511358326498 0 0 0
1083 1 22.707562101759212 -4.677815426832335 7.811715818671431 0 0 0
1080 1 23.64907612056859 -6.4962159510710356 5.664192619703545 0 0 0
1081 1 26.414543209667638 -7.360028204939816 5.649756993127143 0 0 0
109 1 27.35349104164979 -9.213396144807998 7.755527013551572 -1 0 0
1076 1 25.47653686559623 -5.557802146985539 7.8070896552471964 0 0 0
1079 1 24.58442226160937 -8.331636611222502 7.766845355633642 0 0 0
127 1 3.561014948094271 -2.8056479362705495 5.667036415090849 0 0 0
128 1 0.7552172090411875 -1.8693984262498151 5.660204322682636 0 0 0
118 1 4.407581463590466 -4.648123463782869 7.831051795479447 0 0 0
129 1 1.6382849528318375 -3.8330980305203948 7.808412380110632 0 0 0
132 1 2.504718977346389 -1.2603982384327028 7.810397551528515 0 0 0
134 1 4.4287100363647784 -0.06684220652176824 6.068142080060026 0 0 0
1319 1 8.962294740210611 -4.665492177225948 5.676481203312257 0 0 0
135 1 7.069753891794671 -1.270897293332108 5.718996160628994 0 0 0
136 1 6.22099171975148 -3.8584876037192126 5.6911924699375085 0 0 0
137 1 5.3663107246264845 -1.9536986739847344 7.8895750445241 0 0 0
138 1 8.114174152119762 -2.8302737982734 7.871883306269738 0 0 0
1341 1 8.899981459230455 -0.0526347854761131 7.443777896858628 0 0 0
1327 1 12.615052763195074 -2.867634604063247 5.6670395213348455 0 0 0
1328 1 9.857615881437486 -1.9335031695741218 5.617843327296859 0 0 0
1329 1 10.769053553526716 -3.8928092642096344 7.8212021391351785 0 0 0
1332 1 11.582852935639705 -1.2908688100649994 7.787889984892789 0 0 0
1334 1 13.400554542015168 -0.051722404151382184 6.079547340000851 0 0 0
1082 1 18.147886429739465 -4.629098166746525 5.6753961343943855 0 0 0
1335 1 16.160654903880474 -0.9653153379486792 5.7763543911054365 0 0 0
1336 1 15.3729857225158 -3.7514368561321905 5.670734581597814 0 0 0
1337 1 14.453929036319723 -2.02404014195885 7.799504661398914 0 0 0
1338 1 17.25080541854707 -2.860066429985902 7.77045603386405 0 0 0
1060 1 18.16001521308877 -0.047951674439357835 8.123634761401181 0 0 0
1073 1 19.018157046161612 -1.705654286968603 5.754425944291991 0 0 0
1074 1 21.801202761758457 -2.81349107541184 5.680920921159505 0 0 0
1067 1 22.674261735450987 -0.09935693415109884 6.022094570943929 0 0 0
1069 1 20.798012162956717 -1.2841696497729704 7.890426709942729 0 0 0
1072 1 19.937764681980102 -3.8812491292286184 7.811822408411447 0 0 0
119 1 27.291882611033557 -4.603103087261061 5.673955018174472 -1 0 0
1065 1 24.522100368793033 -3.778863186757126 5.679011588560936 0 0 0
1066 1 25.438502196913298 -1.181581124188234 5.820313178374102 0 0 0
1063 1 26.415801040541346 -2.821305194419147 7.872288995259037 0 0 0
1064 1 23.623156950135552 -1.957378485603857 7.877740805166869 0 0 0
141 1 27.333790219489522 -0.014043015389957664 7.581537235295925 -1 0 0
142 1 1.4817123783673836 1.4086794827689169 5.340526868856397 0 0 0
156 1 0.7088053268647113 4.666419196402722 5.653300406638671 0 0 0
146 1 4.405586535303074 2.8452569096631763 6.0819328139729825 0 0 0
143 1 2.698798689356095 1.3829024421055351 7.845573626207189 0 0 0
144 1 2.4501548334632908 4.029426524284105 7.80425994776827 0 0 0
149 1 6.97391709693236 1.3701658715474665 5.355982878111278 0 0 0
150 1 7.0403566267984115 4.010744277590748 5.71813367373132 0 0 0
151 1 6.178616953141817 1.3837915341471274 8.077070844585084 0 0 0
148 1 8.879896302052328 2.788616423264832 7.432058496791435 0 0 0
1342 1 10.566694159621939 1.3790309055995045 5.329327291216583 0 0 0
1346 1 13.362253535741408 2.8126559515424687 6.110885292734798 0 0 0
1343 1 11.507909868624157 1.3734096141761076 7.974638004167563 0 0 0
1344 1 11.542556136702974 4.045216509709375 7.803580881204087 0 0 0
1349 1 17.503567150533677 1.3718616512135182 5.843369613443871 0 0 0
1350 1 16.116418774077225 3.6885720491352556 5.766424670322637 0 0 0
1348 1 18.122933610742145 2.7833995347611005 8.136292091169208 0 0 0
1351 1 15.351048507388766 1.376628534898014 7.771064709157382 0 0 0
1045 1 18.979445740417578 4.432796624381633 5.75319510611739 0 0 0
1059 1 20.16913356688034 1.3686556528383234 5.265891237426971 0 0 0
1055 1 22.654182252580288 2.859125768001272 6.02092687488688 0 0 0
1057 1 20.760656134742206 4.017738568123834 7.88916477104754 0 0 0
1058 1 21.019056969563845 1.3678046142279336 7.923968997558396 0 0 0
1051 1 25.393199240252297 3.970888731001127 5.7941268434980335 0 0 0
1052 1 25.14047953782295 1.3887305465544928 5.221226975162043 0 0 0
1050 1 24.337521067125486 1.3850273783395273 7.976230575916105 0 0 0
1053 1 27.27597458982092 2.7927709505810054 7.55622769219427 0 0 0
157 1 3.5087893156046914 5.580799666808316 5.673453861439616 0 0 0
158 1 2.5334377282800924 8.308406938034146 5.67252136536694 0 0 0
159 1 1.5784708948948236 6.6138801761076875 7.8153904000091385 0 0 0
162 1 4.354747339928688 7.399115905035419 7.842147326150955 0 0 0
177 1 0.6845272119363383 9.293754623955701 7.8051485375359055 0 0 0
163 1 6.180867165756117 6.592827823799789 5.693131422572924 0 0 0
164 1 8.91734202747141 7.408939024671704 5.68323466916802 0 0 0
176 1 5.275991834786178 9.25098309612196 5.6922305735559995 0 0 0
154 1 5.334575616184057 4.722252212412432 7.895410804393847 0 0 0
166 1 7.113434788848009 8.307787435840396 7.850411269589928 0 0 0
167 1 8.081750492768611 5.561710753567507 7.881451741541034 0 0 0
1356 1 9.825525414762147 4.6878812773638705 5.625692757733987 0 0 0
1357 1 12.573577716059306 5.624749910328358 5.672798254575544 0 0 0
1358 1 11.648981509646873 8.367459829444233 5.65984043716635 0 0 0
1359 1 10.727329209637363 6.645024690423183 7.82662351408905 0 0 0
1362 1 13.480369472880769 7.460252520146436 7.806188418828268 0 0 0
1377 1 9.821972668602399 9.309936576411364 7.821854606226248 0 0 0
1363 1 15.333675396907049 6.480970365783985 5.667470705573249 0 0 0
1364 1 18.105113741172616 7.35449075440806 5.677402379285046 0 0 0
1376 1 14.416909340199616 9.231917831233801 5.667607217594298 0 0 0
1354 1 14.426473350223333 4.779075519993437 7.808101709129408 0 0 0
1366 1 16.252592707317365 8.337129206743562 7.784965647664171 0 0 0
1367 1 17.215077266153365 5.5840635723235765 7.772335015105427 0 0 0
1043 1 20.844084901233877 8.32845157812844 5.666596937282064 0 0 0
1044 1 21.755460444402736 5.565414439547997 5.678745089482378 0 0 0
1039 1 22.65859141606909 7.422388455131145 7.819290676555821 0 0 0
1042 1 19.89629995323039 6.614262688002339 7.815353951067708 0 0 0
1024 1 18.99349714397342 9.301804662413197 7.786889050709206 0 0 0
1025 1 23.58791355729686 9.261507495395838 5.674679719911404 0 0 0
1037 1 27.22698140227124 7.396425803340499 5.679044194303018 0 0 0
1038 1 24.462862053489328 6.5580436921237615 5.67669119110314 0 0 0
1047 1 23.587226296276825 4.713644602011208 7.877163704640375 0 0 0
1034 1 26.363266402952135 5.594398340260345 7.869499691420902 0 0 0
1035 1 25.416448316709587 8.327363328849748 7.817888935434431 0 0 0
169 1 1.6352504946867241 11.062137174907798 5.6717455295173975 0 0 0
170 1 4.3958084196334815 11.965425893141358 5.6795273471617636 0 0 0
175 1 0.7537258579305364 13.838694932867512 5.673975917189908 0 0 0
172 1 3.459309441007687 10.1430495148507 7.81154506967052 0 0 0
173 1 2.5903125655901698 12.903329254154416 7.784526465854578 0 0 0
179 1 8.013053101813181 10.159014130517583 5.6823074222995995 0 0 0
180 1 7.109226900373656 12.920237640930496 5.670132565177661 0 0 0
181 1 6.20613089824649 11.086634385384546 7.817985612205949 0 0 0
184 1 8.928322673940931 12.047689301000522 7.802413009362135 0 0 0
193 1 5.3322999533205815 13.887971903076643 7.794383128090857 0 0 0
1369 1 10.73941764288026 11.117554347533313 5.6601712447009564 0 0 0
1370 1 13.502855103500911 11.964303546642597 5.655884595398408 0 0 0
1375 1 9.819218506727177 13.893385936471203 5.666822075621373 0 0 0