LAMMPS data file via write_data, version 29 Sep 2021, timestep = 1282

1800 atoms
2 atom types

0.2138583498700887 27.81149769402836 xlo xhi
-18.68947207977389 18.68947207977389 ylo yhi
1.0957685730131883 31.31706361596363 zlo zhi

Masses

1 107.8682
2 107.8682

Atoms # atomic

1 2 1.8781632413776186 -17.1134847503647 1.1020481583129724 0 0 0
2 2 2.941471657842914 -14.623105397226933 1.4765652148629753 0 0 0
3 2 3.721377137664211 -16.651107861922014 3.4864059776909477 0 0 0
4 2 0.9717781780139246 -15.814174934242951 3.5105788371816007 0 0 0
81 2 1.9740613903142423 -17.391575553336097 5.61584107510762 0 0 0
82 2 2.8125372460383153 -14.756692178387974 5.644482046394089 0 0 0
5 2 5.62222850513998 -15.794556103737724 1.5043662282830377 0 0 0
6 2 8.292692059300585 -17.07541152371152 1.7052960390035958 0 0 0
7 2 6.454690824151178 -17.358673474047073 3.7692516484539347 0 0 0
8 2 7.461230539190007 -14.788442935010734 3.5575633118167165 0 0 0
88 2 5.4838575887426435 -15.679571921650377 5.707401757201328 0 0 0
89 2 8.35080735005039 -16.591981290190123 5.76310753139884 0 0 0
1270 1 9.08139459391769 -18.609305227682565 4.040603423427307 0 1 0
1201 2 11.077376356096948 -17.113484750364652 1.1020481583129318 0 0 0
1202 2 12.140684772562308 -14.623105397226945 1.476565214862991 0 0 0
1203 2 12.920590252383697 -16.651107861922064 3.4864059776909904 0 0 0
1204 2 10.170991292733403 -15.81417493424295 3.510578837181656 0 0 0
1281 2 11.17327450503373 -17.3915755533362 5.615841075107592 0 0 0
1282 2 12.0117503607577 -14.756692178388054 5.644482046394106 0 0 0
1205 2 14.82144161985935 -15.794556103737778 1.5043662282830395 0 0 0
1206 2 17.491905174020005 -17.075411523711526 1.70529603900358 0 0 0
1207 2 15.65390393887057 -17.358673474046906 3.7692516484539493 0 0 0
1208 2 16.660443653909407 -14.788442935010702 3.5575633118166574 0 0 0
1288 2 14.683070703462041 -15.67957192165032 5.7074017572013425 0 0 0
1289 2 17.55002046476978 -16.591981290190123 5.763107531398812 0 0 0
1131 1 18.28060770863731 -18.609305227682484 4.040603423427347 0 1 0
1197 2 19.37020440745269 -15.814174934242926 3.510578837181636 0 0 0
1198 2 22.119803367102993 -16.65110786192198 3.4864059776909486 0 0 0
1199 2 21.339897887281705 -14.623105397226942 1.4765652148629822 0 0 0
1200 2 20.276589470816457 -17.113484750364808 1.10204815831302 0 0 0
1119 2 21.210963475477122 -14.756692178387993 5.644482046394119 0 0 0
1120 2 20.372487619753148 -17.391575553336107 5.615841075107611 0 0 0
1193 2 25.85965676862886 -14.788442935010728 3.557563311816647 0 0 0
1194 2 24.85311705358994 -17.358673474046917 3.769251648453997 0 0 0
1195 2 26.69111828873933 -17.0754115237116 1.7052960390035727 0 0 0
1196 2 24.020654734578724 -15.794556103737703 1.5043662282830366 0 0 0
1112 2 26.74923357948922 -16.59198129019016 5.763107531398853 0 0 0
1113 2 23.882283818181435 -15.67957192165036 5.707401757201401 0 0 0
70 1 27.479820823356604 -18.609305227682555 4.0406034234272985 -1 1 0
9 2 4.7054090092746215 -13.886884251242263 3.556828664348736 0 0 0
10 2 3.7947449151527444 -11.95797743556271 1.4934389134967598 0 0 0
11 2 1.8990677114617525 -12.993027151231045 3.5381032516768407 0 0 0
12 2 2.823645952454908 -10.218140754911307 3.5571832121463487 0 0 0
13 2 0.9845681464741004 -11.186791745192624 1.4811876103245443 0 0 0
95 2 3.754511557061775 -12.058306437280244 5.655578048224469 0 0 0
100 2 0.9910702413474096 -11.14128170016838 5.648758152220143 0 0 0
1214 2 9.270997833324294 -14.060203394092834 1.4627804928192842 0 0 0
1302 2 9.273734163199714 -13.893262638876731 5.647024422149214 0 0 0
15 2 6.519969468837637 -12.986635061960909 1.477645347618721 0 0 0
16 2 7.433476530925409 -10.190214589482197 1.48706473736005 0 0 0
17 2 8.358914058054516 -12.061425838361743 3.525978785682691 0 0 0
18 2 5.609252384259683 -11.129481193470559 3.5586357238708763 0 0 0
103 2 6.51753135309273 -12.981245402598272 5.667618848783548 0 0 0
104 2 7.438829144393754 -10.222899177630396 5.656908327769426 0 0 0
1209 2 13.90462212399394 -13.88688425124226 3.5568286643487887 0 0 0
1210 2 12.993958029872193 -11.957977435562718 1.4934389134967931 0 0 0
1211 2 11.098280826181156 -12.993027151231 3.538103251676819 0 0 0
1212 2 12.022859067174295 -10.218140754911344 3.557183212146357 0 0 0
1213 2 10.18378126119344 -11.18679174519265 1.4811876103245554 0 0 0
1295 2 12.953724671781142 -12.058306437280255 5.655578048224499 0 0 0
1300 2 10.190283356066836 -11.141281700168317 5.648758152220164 0 0 0
1187 2 18.470210948043675 -14.06020339409279 1.4627804928192158 0 0 0
1099 2 18.47294727791919 -13.893262638876724 5.647024422149285 0 0 0
1215 2 15.719182583557 -12.986635061960973 1.4776453476187794 0 0 0
1216 2 16.632689645644728 -10.19021458948219 1.4870647373600148 0 0 0
1217 2 17.558127172773876 -12.061425838361764 3.5259787856826454 0 0 0
1218 2 14.808465498979052 -11.129481193470554 3.5586357238709154 0 0 0
1303 2 15.716744467812156 -12.981245402598338 5.667618848783481 0 0 0
1304 2 16.638042259113114 -10.22289917763039 5.656908327769453 0 0 0
1188 2 19.38299437591282 -11.18679174519265 1.4811876103245556 0 0 0
1189 2 21.222072181893658 -10.218140754911364 3.5571832121463722 0 0 0
1190 2 20.297493940900537 -12.993027151231091 3.53810325167685 0 0 0
1191 2 22.19317114459157 -11.95797743556271 1.4934389134967818 0 0 0
1192 2 23.103835238713483 -13.886884251242247 3.556828664348768 0 0 0
1101 2 19.389496470786266 -11.141281700168344 5.648758152220161 0 0 0
1106 2 22.15293778650069 -12.058306437280223 5.655578048224419 0 0 0
14 2 27.66942406276311 -14.060203394092843 1.4627804928192565 -1 0 0
102 2 27.67216039263857 -13.893262638876823 5.647024422149225 -1 0 0
1183 2 24.007678613698502 -11.129481193470554 3.558635723870891 0 0 0
1184 2 26.7573402874934 -12.061425838361746 3.5259787856826112 0 0 0
1185 2 25.83190276036421 -10.190214589482222 1.4870647373600312 0 0 0
1186 2 24.918395698276377 -12.986635061960948 1.4776453476187026 0 0 0
1097 2 25.83725537383252 -10.222899177630335 5.6569083277694245 0 0 0
1098 2 24.915957582531632 -12.981245402598343 5.667618848783536 0 0 0
111 2 4.66604623851303 -9.312536191827412 5.6645291062959515 0 0 0
19 2 1.9065489678202432 -8.36268426460336 1.5070772230378318 0 0 0
20 2 2.8210839653262973 -5.54777873674987 1.5393876682805567 0 0 0
21 2 0.9903753970359637 -6.4795645057787965 3.567354223641294 0 0 0
22 2 3.736364749245833 -7.450507736602006 3.5729289822657444 0 0 0
23 2 4.641284058783173 -4.681466556262559 3.5947276443198812 0 0 0
24 2 4.676654688841556 -9.259927771351546 1.503827994420724 0 0 0
112 2 1.9061982046672792 -8.37237588916286 5.658952666305469 0 0 0
113 2 2.8239424950311403 -5.5961527868600465 5.673080570147633 0 0 0
1225 2 9.273025254255403 -9.282014721966247 3.545469782614572 0 0 0
27 2 8.35396023411938 -7.394051660986727 1.5062836737972778 0 0 0
28 2 5.561784230468679 -6.547881292003577 1.517596990302008 0 0 0
29 2 6.512728527469782 -8.373292120295329 3.5668159561527655 0 0 0
30 2 7.417407658446779 -5.620962160725038 3.5808987001788783 0 0 0
120 2 8.353408043005414 -7.449280767822653 5.665569156705307 0 0 0
121 2 5.571351851682404 -6.568949540553282 5.681303523700769 0 0 0
1319 2 9.271624129603211 -4.6562248635274175 5.680585737608453 0 0 0
1311 2 13.865259353232458 -9.31253619182735 5.664529106295909 0 0 0
1219 2 11.105762082539659 -8.362684264603379 1.5070772230378688 0 0 0
1220 2 12.020297080045752 -5.547778736749799 1.539387668280603 0 0 0
1221 2 10.189588511755359 -6.479564505778789 3.5673542236413014 0 0 0
1222 2 12.935577863965257 -7.450507736602054 3.572928982265712 0 0 0
1223 2 13.840497173502632 -4.681466556262541 3.5947276443199123 0 0 0
1224 2 13.87586780356094 -9.25992777135161 1.503827994420724 0 0 0
1312 2 11.105411319386743 -8.372375889162868 5.658952666305446 0 0 0
1313 2 12.023155609750507 -5.596152786860155 5.673080570147597 0 0 0
1176 2 18.472238368974704 -9.282014721966306 3.5454697826145907 0 0 0
1227 2 17.553173348838726 -7.394051660986702 1.5062836737972696 0 0 0
1228 2 14.760997345188033 -6.547881292003591 1.5175969903020237 0 0 0
1229 2 15.7119416421892 -8.373292120295341 3.566815956152782 0 0 0
1230 2 16.616620773166108 -5.620962160725084 3.5808987001788295 0 0 0
1082 2 18.47083724432278 -4.656224863527439 5.680585737608455 0 0 0
1320 2 17.55262115772475 -7.449280767822616 5.665569156705339 0 0 0
1321 2 14.770564966401759 -6.568949540553239 5.681303523700769 0 0 0
1090 2 23.06447246795182 -9.312536191827276 5.664529106295948 0 0 0
1177 2 23.075080918280328 -9.259927771351562 1.5038279944207158 0 0 0
1178 2 23.039710288222018 -4.681466556262527 3.594727644319872 0 0 0
1179 2 22.13479097868461 -7.450507736602026 3.5729289822656947 0 0 0
1180 2 19.388801626474716 -6.479564505778788 3.567354223641308 0 0 0
1181 2 21.219510194765125 -5.547778736749792 1.5393876682805934 0 0 0
1182 2 20.304975197258994 -8.36268426460337 1.5070772230378688 0 0 0
1088 2 21.22236872447007 -5.596152786860132 5.673080570147661 0 0 0
1089 2 20.304624434106035 -8.372375889162834 5.658952666305453 0 0 0
25 2 27.6714514836942 -9.282014721966261 3.5454697826145574 -1 0 0
1171 2 25.815833887885567 -5.620962160725077 3.5808987001787815 0 0 0
1172 2 24.91115475690858 -8.373292120295336 3.5668159561527837 0 0 0
1173 2 23.96021045990753 -6.547881292003542 1.5175969903019924 0 0 0
1174 2 26.7523864635582 -7.394051660986718 1.5062836737972962 0 0 0
119 2 27.670050359042044 -4.656224863527432 5.680585737608407 -1 0 0
1080 2 23.969778081121245 -6.56894954055325 5.681303523700811 0 0 0
1081 2 26.75183427244427 -7.449280767822584 5.665569156705275 0 0 0
31 2 3.7286003176186804 -2.74492986309731 1.5752517647679207 0 0 0
32 2 1.8989113784296676 -3.652878136754309 3.60903673239457 0 0 0
33 2 2.830053119231594 -0.8416812367306166 3.6858654306682315 0 0 0
34 2 1.0044367760166386 -1.7239749485017952 1.5566958248483207 0 0 0
127 2 3.7691008510509794 -2.820760349455065 5.68685217987789 0 0 0
128 2 0.9871459655844774 -1.804845664247999 5.744732837551779 0 0 0
35 1 4.627877812543904 0.05285038781685846 1.4792588577247794 0 0 0
1226 2 9.274690608136845 -4.578074773278716 1.52434837323405 0 0 0
36 2 7.317093721067724 -1.1840978779598375 1.5140810802952027 0 0 0
37 2 6.434205383410287 -3.8431270935566433 1.5389516047827827 0 0 0
38 2 5.523072451044942 -1.8842797154709658 3.611586143522419 0 0 0
39 2 8.312733699058052 -2.879911243133233 3.595566778665347 0 0 0
135 2 7.329839655916353 -1.2392689396036085 5.710761790258648 0 0 0
136 2 6.466748472572958 -3.860075973141191 5.708089888542908 0 0 0
1240 1 9.167324827384048 -0.17037894864889863 3.6385679180786337 0 0 0
1231 2 12.927813432338063 -2.7449298630972745 1.575251764767955 0 0 0
1232 2 11.098124493149097 -3.652878136754316 3.609036732394534 0 0 0
1233 2 12.029266233951075 -0.8416812367306166 3.6858654306682563 0 0 0
1234 2 10.20364989073604 -1.723974948501742 1.5566958248483338 0 0 0
1327 2 12.96831396577037 -2.820760349455159 5.6868521798778 0 0 0
1328 2 10.186359080303959 -1.8048456642478747 5.744732837551754 0 0 0
1235 1 13.827090927263422 0.052850387816648976 1.4792588577248291 0 0 0
1175 2 18.47390372285621 -4.578074773278705 1.5243483732340444 0 0 0
1236 2 16.516306835787105 -1.1840978779596885 1.5140810802952043 0 0 0
1237 2 15.633418498129693 -3.8431270935565793 1.538951604782776 0 0 0
1238 2 14.722285565764393 -1.8842797154709765 3.6115861435224486 0 0 0
1239 2 17.511946813777467 -2.879911243133224 3.595566778665333 0 0 0
1335 2 16.529052770635747 -1.2392689396036156 5.7107617902585535 0 0 0
1336 2 15.665961587292466 -3.860075973141223 5.708089888542917 0 0 0
1161 1 18.366537942103395 -0.17037894864890923 3.638567918078627 0 0 0
1167 2 19.402863005455245 -1.7239749485018023 1.5566958248483616 0 0 0
1168 2 21.22847934867038 -0.8416812367306663 3.6858654306682586 0 0 0
1169 2 20.2973376078685 -3.652878136754316 3.6090367323945842 0 0 0
1170 2 22.12702654705748 -2.7449298630972354 1.5752517647679294 0 0 0
1073 2 19.385572195023286 -1.8048456642478286 5.744732837551756 0 0 0
1074 2 22.167527080489837 -2.820760349455086 5.686852179877826 0 0 0
1166 1 23.02630404198271 0.05285038781664186 1.4792588577247592 0 0 0
26 2 27.673116837575733 -4.578074773278682 1.5243483732340761 -1 0 0
1162 2 26.71115992849687 -2.8799112431332685 3.5955667786653343 0 0 0
1163 2 23.921498680483797 -1.884279715470877 3.611586143522417 0 0 0
1164 2 24.8326316128491 -3.843127093556581 1.5389516047827754 0 0 0
1165 2 25.71551995050669 -1.1840978779598623 1.5140810802952207 0 0 0
1065 2 24.865174702011814 -3.860075973141191 5.708089888542833 0 0 0
1066 2 25.728265885355114 -1.239268939603612 5.710761790258594 0 0 0
40 1 27.565751056822847 -0.17037894864894124 3.638567918078586 -1 0 0
41 1 4.077917597156775 1.775470964610129 3.584441825079175 0 0 0
42 1 2.1143984716116218 3.7680587386250624 3.6228620017863187 0 0 0
43 1 1.7716267367599057 1.3197326528122566 2.056877198809259 0 0 0
44 1 3.792224980215383 3.1397273090029825 1.1862437151639613 0 0 0
54 1 0.25081253185010177 4.392244168072418 1.5319072674596452 0 0 0
142 1 1.6375966729719686 1.3533760813633064 5.401400211086498 0 0 0
146 1 3.9304468783919253 3.0052166797676776 5.9527995564897775 0 0 0
156 1 0.2949679888652166 4.5106842945264 5.752144577512071 0 0 0
49 1 4.746387535264069 4.6881635583529615 3.661865243898032 0 0 0
134 1 4.661313004481053 0.05266882641255358 5.813906729948348 0 0 0
45 1 8.741053450639685 2.7055125625837295 3.6610039483861025 0 0 0
46 1 6.579985163217993 0.7964182088077216 3.532468958122841 0 0 0
47 1 8.330237013086231 1.377265842325546 1.1876340826053162 0 0 0
48 1 6.494936061357438 3.319800869628614 2.020610116471475 0 0 0
149 1 7.986041783719089 1.3149900651864517 5.922580132018897 0 0 0
150 1 6.647091948089098 3.696704337053581 5.634498725955084 0 0 0
1241 1 13.277130711876069 1.7754709646100615 3.584441825079155 0 0 0
1242 1 11.313611586331053 3.7680587386250446 3.622862001786339 0 0 0
1243 1 10.970839851479377 1.3197326528123134 2.056877198809342 0 0 0
1244 1 12.991438094934772 3.1397273090029683 1.1862437151639629 0 0 0
1254 1 9.45002564656952 4.392244168072482 1.5319072674596157 0 0 0
1342 1 10.836809787691326 1.3533760813634022 5.401400211086569 0 0 0
1346 1 13.129659993111385 3.0052166797676527 5.952799556489737 0 0 0
1356 1 9.494181103584541 4.510684294526436 5.7521445775120625 0 0 0
1249 1 13.945600649983485 4.688163558352947 3.6618652438980344 0 0 0
1334 1 13.860526119200488 0.05266882641251098 5.813906729948384 0 0 0
1245 1 17.940266565359163 2.705512562583701 3.661003948386077 0 0 0
1246 1 15.779198277937331 0.796418208807853 3.532468958122887 0 0 0
1247 1 17.529450127805625 1.3772658423255957 1.1876340826052798 0 0 0
1248 1 15.694149176076802 3.3198008696285606 2.020610116471517 0 0 0
1349 1 17.185254898438547 1.3149900651864375 5.922580132018874 0 0 0
1350 1 15.84630506280849 3.6967043370535775 5.63449872595507 0 0 0
1147 1 18.64923876128884 4.392244168072425 1.5319072674596206 0 0 0
1157 1 22.190651209654078 3.139727309002883 1.186243715163985 0 0 0
1158 1 20.170052966198757 1.3197326528123277 2.0568771988093886 0 0 0
1159 1 20.512824701050505 3.7680587386250552 3.6228620017863276 0 0 0
1160 1 22.47634382659542 1.7754709646100506 3.5844418250791357 0 0 0
1045 1 18.693394218304046 4.510684294526329 5.752144577512102 0 0 0
1055 1 22.32887310783083 3.005216679767617 5.952799556489726 0 0 0
1059 1 20.03602290241076 1.3533760813635123 5.401400211086548 0 0 0
1152 1 23.144813764702803 4.688163558353022 3.661865243898072 0 0 0
1067 1 23.05973923391993 0.052668826412564256 5.813906729948387 0 0 0
1153 1 24.893362290796134 3.3198008696286707 2.0206101164714436 0 0 0
1154 1 26.7286632425249 1.3772658423255282 1.1876340826053202 0 0 0
1155 1 24.978411392656703 0.7964182088078423 3.5324689581228097 0 0 0
1156 1 27.13947968007854 2.7055125625836975 3.661003948386065 0 0 0
1051 1 25.045518177527956 3.6967043370536166 5.634498725955024 0 0 0
1052 1 26.38446801315786 1.314990065186434 5.922580132018878 0 0 0
50 1 1.1467028890472288 6.46745563981532 3.631110547292112 0 0 0
51 1 3.9141784839293092 7.444606515944792 3.6081150822655976 0 0 0
52 1 2.8969361560083726 5.74093305038637 1.5454990696015705 0 0 0
53 1 2.04206345726178 8.44130601468994 1.5418087582570112 0 0 0
157 1 2.9840188265264893 5.657183612990171 5.753504348621964 0 0 0
158 1 2.0876903869002397 8.377798537990467 5.705319698233528 0 0 0
55 1 6.718328065818039 8.235577675577307 3.5873163859751007 0 0 0
56 1 7.653112887014381 5.455023859985542 3.6163841755833994 0 0 0
57 1 5.773860109597844 6.311218498364493 1.5768039477034872 0 0 0
58 1 8.569098156416514 7.273461433225641 1.548286726443002 0 0 0
65 1 4.872962538988203 9.168267727759103 1.5304851464220588 0 0 0
163 1 5.782468390603252 6.468845550345735 5.709810209643731 0 0 0
164 1 8.55371427556029 7.353620930036159 5.706176273111051 0 0 0
176 1 4.872113934234736 9.2343569679779 5.701199499578471 0 0 0
1259 1 9.451184501505754 9.239829376109082 3.6011084737174137 0 0 0
1250 1 10.345916003766646 6.467455639815306 3.6311105472921397 0 0 0
1251 1 13.11339159864872 7.444606515944703 3.6081150822656416 0 0 0
1252 1 12.09614927072774 5.740933050386359 1.5454990696015332 0 0 0
1253 1 11.24127657198119 8.44130601468993 1.5418087582570066 0 0 0
1357 1 12.183231941245914 5.657183612990129 5.7535043486220525 0 0 0
1358 1 11.286903501619662 8.377798537990346 5.705319698233603 0 0 0
1255 1 15.917541180537476 8.235577675577346 3.587316385975125 0 0 0
1256 1 16.85232600173383 5.45502385998546 3.6163841755834145 0 0 0
1257 1 14.973073224317279 6.311218498364443 1.576803947703487 0 0 0
1258 1 17.768311271135868 7.273461433225588 1.5482867264430142 0 0 0
1265 1 14.072175653707577 9.168267727759018 1.5304851464221196 0 0 0
1363 1 14.981681505322651 6.46884555034582 5.7098102096437415 0 0 0
1364 1 17.752927390279666 7.353620930036148 5.706176273111003 0 0 0
1376 1 14.071327048954164 9.2343569679779 5.701199499578572 0 0 0
1142 1 18.65039761622519 9.239829376108986 3.6011084737174577 0 0 0
1148 1 20.4404896867006 8.441306014689841 1.5418087582570015 0 0 0
1149 1 21.295362385447245 5.740933050386309 1.5454990696015962 0 0 0
1150 1 22.312604713368074 7.444606515944888 3.6081150822656416 0 0 0
1151 1 19.545129118486145 6.46745563981526 3.631110547292116 0 0 0
1043 1 20.486116616338975 8.377798537990385 5.705319698233654 0 0 0
1044 1 21.3824450559653 5.657183612990132 5.753504348622063 0 0 0
1136 1 23.271388768426952 9.16826772775899 1.5304851464220888 0 0 0
1143 1 26.967524385855373 7.27346143322556 1.54828672644302 0 0 0
1144 1 24.17228633903672 6.311218498364415 1.576803947703507 0 0 0
1145 1 26.051539116453153 5.455023859985475 3.616384175583412 0 0 0
1146 1 25.116754295256836 8.235577675577332 3.587316385975048 0 0 0
1025 1 23.270540163673548 9.234356967977837 5.701199499578476 0 0 0
1037 1 26.952140504999086 7.353620930036173 5.706176273111007 0 0 0
1038 1 24.180894620042025 6.468845550345785 5.709810209643734 0 0 0
59 1 0.25197138678621656 9.239829376109089 3.601108473717404 0 0 0
60 1 3.016924388554216 10.205309347909258 3.5883608182187863 0 0 0
61 1 2.106731544002123 12.972453024321725 3.585727367784543 0 0 0
62 1 1.1485418683928255 11.188871209092722 1.5303600490833356 0 0 0
63 1 3.9538457004903074 11.990308424606791 1.5240161542934163 0 0 0
169 1 1.1825528933431275 11.11884226788651 5.694001035260258 0 0 0
170 1 3.9614130405079058 11.984513215161176 5.701858215702414 0 0 0
175 1 0.2703196986421038 13.861418107629971 5.71121112616768 0 0 0
66 1 5.810025385798909 11.014758920172259 3.579966272853781 0 0 0
67 1 8.549970025787688 12.00343030638267 3.5905064907044077 0 0 0
68 1 7.651674944037639 10.081468843592374 1.5301209188995324 0 0 0
69 1 6.7398204087155635 12.87224416658231 1.523225481469838 0 0 0
76 1 4.924517133667047 13.763207844587747 3.590477269390772 0 0 0
1264 1 9.43495737001628 13.98579263306821 1.5420331866806911 0 0 0
179 1 7.634143939463287 10.131369469864786 5.69511552904633 0 0 0
180 1 6.722873203175725 12.884905966458849 5.7120969942049005 0 0 0
1260 1 12.21613750327373 10.205309347909209 3.5883608182188707 0 0 0
1261 1 11.305944658721632 12.972453024321746 3.5857273677845742 0 0 0
1262 1 10.347754983112283 11.188871209092762 1.53036004908338 0 0 0
1263 1 13.153058815209715 11.99030842460683 1.5240161542934583 0 0 0
1369 1 10.381766008062627 11.118842267886436 5.694001035260286 0 0 0
1370 1 13.160626155227266 11.98451321516119 5.701858215702448 0 0 0
1375 1 9.469532813361596 13.861418107629914 5.711211126167631 0 0 0
1137 1 18.634170484735673 13.985792633068323 1.5420331866807293 0 0 0
1266 1 15.009238500518325 11.014758920172095 3.57996627285384 0 0 0
1267 1 17.749183140507053 12.00343030638271 3.5905064907044375 0 0 0
1268 1 16.85088805875713 10.081468843592289 1.5301209188995577 0 0 0
1269 1 15.939033523435008 12.872244166582236 1.523225481469883 0 0 0
1276 1 14.12373024838637 13.763207844587782 3.590477269390749 0 0 0
1379 1 16.833357054182724 10.131369469864953 5.695115529046404 0 0 0
1380 1 15.922086317895074 12.884905966458891 5.712096994204865 0 0 0
1138 1 22.35227192992919 11.990308424606635 1.5240161542934494 0 0 0
1139 1 19.54696809783158 11.188871209092772 1.5303600490833391 0 0 0
1140 1 20.505157773441024 12.972453024321803 3.5857273677845374 0 0 0
1141 1 21.41535061799294 10.20530934790933 3.5883608182189133 0 0 0
1026 1 18.668745928080853 13.861418107630007 5.711211126167567 0 0 0
1031 1 22.359839269946853 11.984513215161133 5.7018582157024555 0 0 0
1032 1 19.58097912278205 11.118842267886675 5.694001035260322 0 0 0
64 1 0.23574425529678322 13.985792633068082 1.5420331866807206 0 0 0
1125 1 23.322943363105793 13.763207844587654 3.590477269390738 0 0 0
1132 1 25.138246638154378 12.872244166582254 1.523225481469813 0 0 0
1133 1 26.050101173476467 10.08146884359232 1.530120918899457 0 0 0
1134 1 26.948396255226434 12.003430306382688 3.5905064907043935 0 0 0
1135 1 24.208451615237692 11.014758920172216 3.579966272853808 0 0 0
1021 1 25.121299432614567 12.88490596645887 5.712096994204893 0 0 0
1022 1 26.032570168902076 10.131369469864861 5.695115529046433 0 0 0
87 1 4.740295299572742 18.6524764763194 5.618283726647606 0 0 0
71 1 1.1798029740496272 15.724226738020427 3.6213404097708293 0 0 0
72 1 4.067303976835768 16.437879521275963 3.7117777045938927 0 0 0
73 1 3.074002199422147 14.82462673103689 1.5946839519721554 0 0 0
74 1 2.2998032064803984 18.315670689319404 2.9456971471191036 0 0 0
187 1 3.039363755481454 14.690398630609401 5.736588850276719 0 0 0
188 1 2.1189726294279128 17.3303020201422 5.719045962700065 0 0 0
75 1 4.947969668525071 18.614932384450064 1.8354957799544243 0 0 0
77 1 6.679827902985314 17.33842833230344 3.7659922455660393 0 0 0
78 1 7.661232237911709 14.733236947781442 3.624896762011175 0 0 0
79 1 5.916816748925998 15.695241998823555 1.5665861842298683 0 0 0
80 1 8.664360208772381 17.03829081493428 1.7919782451873392 0 0 0
194 1 8.560259194173582 16.602258606782026 5.759443289739659 0 0 0
196 1 5.782959462879895 15.59765572348561 5.777750936024054 0 0 0
1287 1 13.939508414292156 18.6524764763193 5.618283726647732 0 0 0
1271 1 10.379016088769214 15.724226738020569 3.621340409770777 0 0 0
1272 1 13.266517091555432 16.437879521276184 3.7117777045938896 0 0 0
1273 1 12.273215314141604 14.824626731037188 1.5946839519722598 0 0 0
1274 1 11.499016321199804 18.315670689319525 2.945697147119171 0 0 0
1387 1 12.238576870201 14.690398630609543 5.736588850276594 0 0 0
1388 1 11.318185744147142 17.330302020142135 5.719045962700159 0 0 0
1275 1 14.147182783244611 18.614932384450057 1.8354957799543612 0 0 0
1277 1 15.87904101770493 17.338428332303724 3.765992245566076 0 0 0
1278 1 16.86044535263099 14.733236947781535 3.6248967620111 0 0 0
1279 1 15.116029863645434 15.695241998823661 1.5665861842300077 0 0 0
1280 1 17.863573323491742 17.03829081493428 1.7919782451873558 0 0 0
1394 1 17.759472308893013 16.602258606782033 5.75944328973965 0 0 0
1396 1 14.982172577599385 15.59765572348554 5.777750936023942 0 0 0
1114 1 23.13872152901156 18.65247647631915 5.61828372664767 0 0 0
1127 1 20.698229435919306 18.31567068931939 2.9456971471190854 0 0 0
1128 1 21.47242842886095 14.824626731037203 1.594683951972171 0 0 0
1129 1 22.465730206274625 16.43787952127595 3.711777704593868 0 0 0
1130 1 19.57822920348849 15.724226738020533 3.6213404097708533 0 0 0
1013 1 20.517398858866546 17.330302020142 5.719045962700173 0 0 0
1014 1 21.43778998492037 14.69039863060938 5.736588850276632 0 0 0
1126 1 23.34639589796388 18.614932384450256 1.83549577995442 0 0 0
1121 1 27.062786438211063 17.03829081493411 1.7919782451874784 0 0 0
1122 1 24.315242978364783 15.695241998823562 1.5665861842299427 0 0 0
1123 1 26.059658467350364 14.733236947781513 3.624896762011196 0 0 0
1124 1 25.078254132424117 17.338428332303568 3.7659922455660118 0 0 0
1005 1 24.181385692318752 15.597655723485653 5.777750936024001 0 0 0
1007 1 26.958685423612447 16.602258606782026 5.759443289739583 0 0 0
83 2 3.727424101111882 -16.867077576479904 7.771899864713238 0 0 0
86 2 0.983036402838654 -15.739951933091872 7.771438657992791 0 0 0
84 2 2.8499285256179068 -14.803843057021952 9.887579808758552 0 0 0
85 2 1.9091736527975554 -17.390511412750236 9.85562817820446 0 0 0
90 2 6.497873577354781 -17.389894716105665 7.69779978186398 0 0 0
91 2 7.432795685644614 -14.765349659507452 7.807776691460677 0 0 0
92 2 8.325521023943088 -16.900022021045963 9.826619374078689 0 0 0
204 2 5.544516511431056 -15.791501568624136 9.85574707173352 0 0 0
1283 2 12.926637215831242 -16.86707757647992 7.771899864713224 0 0 0
1286 2 10.182249517558 -15.739951933091852 7.771438657992837 0 0 0
1284 2 12.049141640337231 -14.803843057021892 9.887579808758533 0 0 0
1285 2 11.108386767516933 -17.390511412750236 9.855628178204489 0 0 0
1290 2 15.69708669207416 -17.389894716105673 7.69779978186396 0 0 0
1291 2 16.632008800364122 -14.765349659507446 7.8077766914607825 0 0 0
1292 2 17.524734138662488 -16.900022021046073 9.826619374078653 0 0 0
1404 2 14.743729626150362 -15.791501568624165 9.85574707173351 0 0 0
1115 2 19.38146263227741 -15.73995193309192 7.771438657992835 0 0 0
1118 2 22.125850330550684 -16.867077576479982 7.771899864713233 0 0 0
1116 2 20.307599882236325 -17.390511412750296 9.855628178204464 0 0 0
1117 2 21.24835475505661 -14.803843057021991 9.887579808758577 0 0 0
1110 2 25.831221915083535 -14.765349659507445 7.8077766914608 0 0 0
1111 2 24.896299806793635 -17.38989471610572 7.697799781863985 0 0 0
997 2 23.942942740869768 -15.79150156862422 9.85574707173347 0 0 0
1109 2 26.723947253381915 -16.90002202104597 9.826619374078707 0 0 0
101 2 4.633454108235339 -13.947281021159826 7.78793248567002 0 0 0
96 2 1.8966591902145706 -12.98377679050433 7.777738462376632 0 0 0
99 2 2.8250511124736257 -10.230905609838016 7.77360289884454 0 0 0
97 2 3.7451268660707084 -12.07795772973415 9.892823374262163 0 0 0
98 2 0.982303414356077 -11.179507918219775 9.891801157544961 0 0 0
1294 2 9.259647630470965 -13.980753980223419 9.881838324614316 0 0 0
106 2 8.355068847420663 -12.058100318223488 7.780970126158612 0 0 0
107 2 5.584213731782631 -11.170942900463192 7.774538591069323 0 0 0
105 2 6.489440741294223 -13.007760651402345 9.891365408429929 0 0 0
108 2 7.422841827340607 -10.247451785101774 9.891724558360165 0 0 0
1301 2 13.832667222954802 -13.947281021159823 7.787932485669917 0 0 0
1296 2 11.095872304933975 -12.983776790504313 7.777738462376654 0 0 0
1299 2 12.024264227193022 -10.230905609838004 7.773602898844502 0 0 0
1297 2 12.944339980790065 -12.077957729734186 9.892823374262123 0 0 0
1298 2 10.181516529075505 -11.179507918219763 9.891801157544993 0 0 0
1107 2 18.458860745190506 -13.980753980223414 9.881838324614307 0 0 0
1306 2 17.554281962140166 -12.058100318223527 7.7809701261586355 0 0 0
1307 2 14.783426846502053 -11.170942900463203 7.774538591069289 0 0 0
1305 2 15.688653856013614 -13.00776065140238 9.891365408429902 0 0 0
1308 2 16.622054942059922 -10.247451785101784 9.891724558360142 0 0 0
1100 2 23.031880337674206 -13.947281021159865 7.787932485669981 0 0 0
1102 2 21.223477341912474 -10.230905609837999 7.773602898844493 0 0 0
1105 2 20.29508541965353 -12.98377679050433 7.777738462376657 0 0 0
1103 2 19.380729643794886 -11.17950791821969 9.891801157544938 0 0 0
1104 2 22.143553095509414 -12.077957729734186 9.892823374262168 0 0 0
94 2 27.658073859909944 -13.98075398022343 9.881838324614353 -1 0 0
1094 2 23.982639961221413 -11.170942900463196 7.77453859106935 0 0 0
1095 2 26.753495076859473 -12.058100318223488 7.780970126158625 0 0 0
1093 2 25.821268056779314 -10.247451785101786 9.891724558360128 0 0 0
1096 2 24.88786697073301 -13.00776065140239 9.891365408429907 0 0 0
115 2 0.980342868924012 -6.5700294782142565 7.7881714614946835 0 0 0
116 2 3.742793292651534 -7.465309122821678 7.782137862741982 0 0 0
110 2 4.664066693548985 -9.333636927042644 9.89133623857073 0 0 0
114 2 1.90773100834041 -8.41403488612509 9.897050268855383 0 0 0
117 2 2.8359854733216743 -5.6558218115577485 9.916620985572765 0 0 0
118 2 4.662446297383519 -4.68212849648407 7.801427368011693 0 0 0
1309 2 9.269249227802058 -9.31470261515689 7.777584620546386 0 0 0
122 2 6.508689759852174 -8.406009566734225 7.779210361838463 0 0 0
125 2 7.433781331103509 -5.642713817595717 7.795048698891584 0 0 0
123 2 8.347522843921528 -7.485473047583057 9.900741560030225 0 0 0
124 2 5.578986144775881 -6.593266210355246 9.903037428200204 0 0 0
1326 2 9.274411620865003 -4.708555552065121 9.921801714603525 0 0 0
1315 2 10.17955598364346 -6.570029478214452 7.788171461494682 0 0 0
1316 2 12.94200640737106 -7.465309122821628 7.782137862742013 0 0 0
1310 2 13.863279808268324 -9.333636927042674 9.89133623857076 0 0 0
1314 2 11.106944123059842 -8.414034886125037 9.897050268855345 0 0 0
1317 2 12.0351985880411 -5.6558218115577095 9.916620985572814 0 0 0
1318 2 13.861659412102897 -4.682128496483973 7.8014273680116535 0 0 0
1092 2 18.468462342521455 -9.314702615156913 7.777584620546333 0 0 0
1322 2 15.707902874571541 -8.406009566734207 7.779210361838458 0 0 0
1325 2 16.63299444582285 -5.642713817595699 7.7950486988915895 0 0 0