LAMMPS data file via write_data, version 29 Sep 2021, timestep = 9629000

1800 atoms
2 atom types

-0.028901578785777815 28.054257622684236 xlo xhi
-19.018272297221596 19.018272297221596 ylo yhi
-0.06462589482185876 62.73122710261326 zlo zhi

Masses

1 107.8682
2 58.6934

Atoms # atomic

1 1 1.801276284614895 -17.653066532152362 1.7076422632346238 0 0 0
2 1 2.5285400245464165 -15.152533879187141 1.4275618532121537 0 0 0
3 1 3.657361427454732 -16.87135722383301 3.7012830710860083 0 0 0
4 1 0.2631570942594663 -16.042990313744127 3.6096864954640875 0 0 0
5 1 5.410456010983875 -15.856575655058215 1.5332514283025853 0 0 0
6 1 8.064903458924942 -17.209294922787443 1.348888218340862 0 0 0
7 1 6.352621804946794 -17.71135453889626 3.4840022896617366 0 0 0
8 1 7.0008763395523275 -14.727150368093143 3.734322798909904 0 0 0
75 1 4.850614998057519 -18.89922225872873 1.5598431711920024 0 1 0
1214 1 8.919012681462775 -14.287428648389213 1.635596004334574 0 0 0
1201 1 11.162329351771566 -17.653066532152362 1.7076422632346238 0 0 0
1202 1 11.889593091703087 -15.152533879187141 1.4275618532121537 0 0 0
1203 1 13.018414494611402 -16.87135722383301 3.7012830710860083 0 0 0
1204 1 9.624210161416137 -16.042990313744127 3.6096864954640875 0 0 0
1187 1 18.280065748619446 -14.287428648389213 1.635596004334574 0 0 0
1205 1 14.771509078140546 -15.856575655058215 1.5332514283025853 0 0 0
1206 1 17.425956526081613 -17.209294922787443 1.348888218340862 0 0 0
1207 1 15.713674872103464 -17.71135453889626 3.4840022896617366 0 0 0
1208 1 16.361929406709 -14.727150368093143 3.734322798909904 0 0 0
1275 1 14.211668065214191 -18.89922225872873 1.5598431711920024 0 1 0
1197 1 18.98526322857281 -16.042990313744127 3.6096864954640875 0 0 0
1198 1 22.379467561768074 -16.87135722383301 3.7012830710860083 0 0 0
1199 1 21.25064615885976 -15.152533879187141 1.4275618532121537 0 0 0
1200 1 20.52338241892824 -17.653066532152362 1.7076422632346238 0 0 0
14 1 27.641118815776117 -14.287428648389213 1.635596004334574 -1 0 0
1126 1 23.572721132370862 -18.89922225872873 1.5598431711920024 0 1 0
1193 1 25.72298247386567 -14.727150368093143 3.734322798909904 0 0 0
1194 1 25.074727939260136 -17.71135453889626 3.4840022896617366 0 0 0
1195 1 26.787009593238285 -17.209294922787443 1.348888218340862 0 0 0
1196 1 24.132562145297218 -15.856575655058215 1.5332514283025853 0 0 0
9 1 4.292792370367594 -14.179364708955628 3.6866424668925815 0 0 0
10 1 3.389716613738056 -12.228588301760041 1.5888556059796737 0 0 0
11 1 1.6041037073632527 -13.394561369227944 3.678573436030407 0 0 0
12 1 2.5692277564095525 -10.709150190517615 3.7500958950967607 0 0 0
13 1 0.5110471948319033 -11.363076935212382 1.693061852431031 0 0 0
15 1 6.160471546272539 -13.182188973491167 1.6386665431989684 0 0 0
16 1 7.024188187488859 -10.43598565717338 1.5916603143217665 0 0 0
17 1 8.195264147810601 -12.345585952984607 3.750310656616513 0 0 0
18 1 5.278654607420626 -11.261653246393122 3.9278960230621296 0 0 0
1225 1 9.157675797075134 -9.553396976094351 3.906854589267089 0 0 0
1209 1 13.653845437524264 -14.179364708955628 3.6866424668925815 0 0 0
1210 1 12.750769680894727 -12.228588301760041 1.5888556059796737 0 0 0
1211 1 10.965156774519924 -13.394561369227944 3.678573436030407 0 0 0
1212 1 11.930280823566225 -10.709150190517615 3.7500958950967607 0 0 0
1213 1 9.872100261988574 -11.363076935212382 1.693061852431031 0 0 0
1176 1 18.518728864231804 -9.553396976094351 3.906854589267089 0 0 0
1215 1 15.52152461342921 -13.182188973491167 1.6386665431989684 0 0 0
1216 1 16.38524125464553 -10.43598565717338 1.5916603143217665 0 0 0
1217 1 17.556317214967272 -12.345585952984607 3.750310656616513 0 0 0
1218 1 14.639707674577298 -11.261653246393122 3.9278960230621296 0 0 0
1188 1 19.233153329145246 -11.363076935212382 1.693061852431031 0 0 0
1189 1 21.291333890722896 -10.709150190517615 3.7500958950967607 0 0 0
1190 1 20.326209841676594 -13.394561369227944 3.678573436030407 0 0 0
1191 1 22.1118227480514 -12.228588301760041 1.5888556059796737 0 0 0
1192 1 23.014898504680936 -14.179364708955628 3.6866424668925815 0 0 0
25 1 27.87978193138848 -9.553396976094351 3.906854589267089 -1 0 0
1183 1 24.00076074173397 -11.261653246393122 3.9278960230621296 0 0 0
1184 1 26.917370282123944 -12.345585952984607 3.750310656616513 0 0 0
1185 1 25.746294321802203 -10.43598565717338 1.5916603143217665 0 0 0
1186 1 24.882577680585882 -13.182188973491167 1.6386665431989684 0 0 0
19 1 1.5979929087641465 -8.435841759990227 1.8352065779185696 0 0 0
20 1 2.418993788379939 -5.6792783594322085 1.554234552200055 0 0 0
21 1 0.6707180437900835 -6.755516871260006 3.8680621033680747 0 0 0
22 1 3.582600193144246 -7.59540675346841 3.753943133357381 0 0 0
23 1 4.469670694906633 -4.782153310843627 3.4710254143156734 0 0 0
24 1 4.194860603399573 -9.45070865149788 1.7046374914894817 0 0 0
27 1 8.014392750411886 -7.777639316131188 1.5547865836842079 0 0 0
28 1 5.357871663332539 -6.8694858779851184 1.5570707950165743 0 0 0
29 1 6.529351888210381 -8.621942453574222 3.9347542955959955 0 0 0
30 1 7.42335380420846 -5.76092817994833 3.6284095683430597 0 0 0
1226 1 9.008294159191003 -4.805956678911192 1.4541063722028928 0 0 0
1219 1 10.959045975920818 -8.435841759990227 1.8352065779185696 0 0 0
1220 1 11.780046855536611 -5.6792783594322085 1.554234552200055 0 0 0
1221 1 10.031771110946755 -6.755516871260006 3.8680621033680747 0 0 0
1222 1 12.943653260300918 -7.59540675346841 3.753943133357381 0 0 0
1223 1 13.830723762063304 -4.782153310843627 3.4710254143156734 0 0 0
1224 1 13.555913670556244 -9.45070865149788 1.7046374914894817 0 0 0
1175 1 18.369347226347674 -4.805956678911192 1.4541063722028928 0 0 0
1227 1 17.375445817568558 -7.777639316131188 1.5547865836842079 0 0 0
1228 1 14.71892473048921 -6.8694858779851184 1.5570707950165743 0 0 0
1229 1 15.890404955367053 -8.621942453574222 3.9347542955959955 0 0 0
1230 1 16.78440687136513 -5.76092817994833 3.6284095683430597 0 0 0
1177 1 22.916966737712915 -9.45070865149788 1.7046374914894817 0 0 0
1178 1 23.191776829219975 -4.782153310843627 3.4710254143156734 0 0 0
1179 1 22.304706327457588 -7.59540675346841 3.753943133357381 0 0 0
1180 1 19.392824178103425 -6.755516871260006 3.8680621033680747 0 0 0
1181 1 21.141099922693282 -5.6792783594322085 1.554234552200055 0 0 0
1182 1 20.32009904307749 -8.435841759990227 1.8352065779185696 0 0 0
26 1 27.730400293504346 -4.805956678911192 1.4541063722028928 -1 0 0
1171 1 26.145459938521803 -5.76092817994833 3.6284095683430597 0 0 0
1172 1 25.251458022523725 -8.621942453574222 3.9347542955959955 0 0 0
1173 1 24.07997779764588 -6.8694858779851184 1.5570707950165743 0 0 0
1174 1 26.73649888472523 -7.777639316131188 1.5547865836842079 0 0 0
31 1 3.4852907402309086 -2.862227578697052 1.638268427334477 0 0 0
32 1 1.307003414626571 -3.7739957242781887 3.553266360021111 0 0 0
33 1 2.1810340069031393 -1.1263601104112873 3.75575713475857 0 0 0
34 1 0.5391066574430651 -1.8117350193082657 1.5194029074964188 0 0 0
36 1 7.051645937903818 -0.935257887800411 1.3422425939149536 0 0 0
37 1 6.338874598573912 -3.9062228008651765 1.4810998603843062 0 0 0
38 1 5.287694262982496 -1.7558182394971809 3.6612791074726316 0 0 0
39 1 8.073224884711793 -2.872021017041977 3.6140661775583824 0 0 0
1231 1 12.84634380738758 -2.862227578697052 1.638268427334477 0 0 0
1232 1 10.668056481783243 -3.7739957242781887 3.553266360021111 0 0 0
1233 1 11.542087074059811 -1.1263601104112873 3.75575713475857 0 0 0
1234 1 9.900159724599737 -1.8117350193082657 1.5194029074964188 0 0 0
1236 1 16.41269900506049 -0.935257887800411 1.3422425939149536 0 0 0
1237 1 15.699927665730584 -3.9062228008651765 1.4810998603843062 0 0 0
1238 1 14.648747330139168 -1.7558182394971809 3.6612791074726316 0 0 0
1239 1 17.434277951868467 -2.872021017041977 3.6140661775583824 0 0 0
1167 1 19.261212791756407 -1.8117350193082657 1.5194029074964188 0 0 0
1168 1 20.903140141216483 -1.1263601104112873 3.75575713475857 0 0 0
1169 1 20.029109548939914 -3.7739957242781887 3.553266360021111 0 0 0
1170 1 22.20739687454425 -2.862227578697052 1.638268427334477 0 0 0
1162 1 26.795331019025134 -2.872021017041977 3.6140661775583824 0 0 0
1163 1 24.00980039729584 -1.7558182394971809 3.6612791074726316 0 0 0
1164 1 25.060980732887256 -3.9062228008651765 1.4810998603843062 0 0 0
1165 1 25.77375207221716 -0.935257887800411 1.3422425939149536 0 0 0
35 1 4.380205726122853 0.11640104877521296 1.3799835382078756 0 0 0
41 1 3.534078242544573 1.1112844778659756 3.924495968484837 0 0 0
42 1 2.196460215535869 3.6820101373388887 4.106793701575176 0 0 0
43 1 1.3640187706952291 1.8284161692606524 1.923213068725359 0 0 0
44 1 4.019869133635262 3.1515893660950063 1.63326588131053 0 0 0
54 1 0.48314131526378 4.730049526923459 2.1113516885873893 0 0 0
45 1 8.505167815591438 2.966352530757554 3.7638191037981064 0 0 0
46 1 6.1950384326582615 1.226755546856154 3.582045713178505 0 0 0
47 1 8.12693726142334 1.6019163201708508 1.579315442600783 0 0 0
48 1 6.886973220740019 3.8252119382298737 1.6291810652247327 0 0 0
49 1 5.083185084492855 4.524082595551768 3.783836491465005 0 0 0
1240 1 8.657022536397221 0.030324490819751304 3.819262217900192 0 0 0
1235 1 13.741258793279524 0.11640104877521296 1.3799835382078756 0 0 0
1241 1 12.895131309701245 1.1112844778659756 3.924495968484837 0 0 0
1242 1 11.55751328269254 3.6820101373388887 4.106793701575176 0 0 0
1243 1 10.7250718378519 1.8284161692606524 1.923213068725359 0 0 0
1244 1 13.380922200791932 3.1515893660950063 1.63326588131053 0 0 0
1254 1 9.84419438242045 4.730049526923459 2.1113516885873893 0 0 0
1161 1 18.018075603553893 0.030324490819751304 3.819262217900192 0 0 0
1245 1 17.86622088274811 2.966352530757554 3.7638191037981064 0 0 0
1246 1 15.556091499814933 1.226755546856154 3.582045713178505 0 0 0
1247 1 17.48799032858001 1.6019163201708508 1.579315442600783 0 0 0
1248 1 16.248026287896693 3.8252119382298737 1.6291810652247327 0 0 0
1249 1 14.444238151649525 4.524082595551768 3.783836491465005 0 0 0
1147 1 19.205247449577122 4.730049526923459 2.1113516885873893 0 0 0
1157 1 22.741975267948604 3.1515893660950063 1.63326588131053 0 0 0
1158 1 20.08612490500857 1.8284161692606524 1.923213068725359 0 0 0
1159 1 20.91856634984921 3.6820101373388887 4.106793701575176 0 0 0
1160 1 22.256184376857917 1.1112844778659756 3.924495968484837 0 0 0
1166 1 23.102311860436195 0.11640104877521296 1.3799835382078756 0 0 0
40 1 27.379128670710564 0.030324490819751304 3.819262217900192 -1 0 0
1152 1 23.805291218806197 4.524082595551768 3.783836491465005 0 0 0
1153 1 25.60907935505336 3.8252119382298737 1.6291810652247327 0 0 0
1154 1 26.849043395736683 1.6019163201708508 1.579315442600783 0 0 0
1155 1 24.917144566971604 1.226755546856154 3.582045713178505 0 0 0
1156 1 27.22727394990478 2.966352530757554 3.7638191037981064 0 0 0
50 1 1.454181425124144 6.788563859283272 3.953554275298253 0 0 0
51 1 4.201544147021735 7.487350478672621 3.762593479137878 0 0 0
52 1 2.918895157927043 5.9647325515713945 1.7733041563310574 0 0 0
53 1 2.1406723137146724 8.811398838871465 1.7326275103904791 0 0 0
55 1 6.982887358234508 8.608560789988978 3.672800707540408 0 0 0
56 1 7.88594812711163 5.844415449948688 3.7365746789761736 0 0 0
57 1 5.919607592244794 6.508133951652859 1.6734676967404976 0 0 0
58 1 8.80244660547969 7.516979030204297 1.8453143502385183 0 0 0
65 1 4.787034250755107 9.30121900004536 1.724200025127876 0 0 0
1250 1 10.815234492280815 6.788563859283272 3.953554275298253 0 0 0
1251 1 13.562597214178407 7.487350478672621 3.762593479137878 0 0 0
1252 1 12.279948225083714 5.9647325515713945 1.7733041563310574 0 0 0
1253 1 11.501725380871344 8.811398838871465 1.7326275103904791 0 0 0
1255 1 16.343940425391178 8.608560789988978 3.672800707540408 0 0 0
1256 1 17.2470011942683 5.844415449948688 3.7365746789761736 0 0 0
1257 1 15.280660659401466 6.508133951652859 1.6734676967404976 0 0 0
1258 1 18.163499672636362 7.516979030204297 1.8453143502385183 0 0 0
1265 1 14.148087317911777 9.30121900004536 1.724200025127876 0 0 0
1148 1 20.862778448028017 8.811398838871465 1.7326275103904791 0 0 0
1149 1 21.641001292240386 5.9647325515713945 1.7733041563310574 0 0 0
1150 1 22.923650281335078 7.487350478672621 3.762593479137878 0 0 0
1151 1 20.176287559437487 6.788563859283272 3.953554275298253 0 0 0
1136 1 23.50914038506845 9.30121900004536 1.724200025127876 0 0 0
1143 1 27.52455273979303 7.516979030204297 1.8453143502385183 0 0 0
1144 1 24.641713726558137 6.508133951652859 1.6734676967404976 0 0 0
1145 1 26.60805426142497 5.844415449948688 3.7365746789761736 0 0 0
1146 1 25.70499349254785 8.608560789988978 3.672800707540408 0 0 0
59 1 0.32171313035367594 9.594741889169022 3.8076796354593907 0 0 0
60 1 3.127099722169232 10.312959139088242 3.7175117040187606 0 0 0
61 1 2.0782646163580223 13.039819713607653 3.6571326038799463 0 0 0
62 1 0.9303826857088475 11.417091478177184 1.5158383142860343 0 0 0
63 1 3.805422584612432 12.054720294825433 1.6110459868257587 0 0 0
66 1 5.75552059690437 11.432395599666783 3.6066687732134106 0 0 0
67 1 8.558528966187472 12.165078710972043 3.7598109102391777 0 0 0
68 1 7.682047464435234 10.30443175331284 1.566971303980392 0 0 0
69 1 6.640833894153918 12.947605022962751 1.3691238539257915 0 0 0
76 1 4.785612540234814 14.09415468381685 3.539897394097772 0 0 0
1264 1 9.296259414010933 13.904980838299704 1.2488283186987261 0 0 0
1259 1 9.682766197510347 9.594741889169022 3.8076796354593907 0 0 0
1260 1 12.488152789325904 10.312959139088242 3.7175117040187606 0 0 0
1261 1 11.439317683514695 13.039819713607653 3.6571326038799463 0 0 0
1262 1 10.29143575286552 11.417091478177184 1.5158383142860343 0 0 0
1263 1 13.166475651769103 12.054720294825433 1.6110459868257587 0 0 0
1137 1 18.657312481167605 13.904980838299704 1.2488283186987261 0 0 0
1266 1 15.116573664061042 11.432395599666783 3.6066687732134106 0 0 0
1267 1 17.919582033344142 12.165078710972043 3.7598109102391777 0 0 0
1268 1 17.043100531591904 10.30443175331284 1.566971303980392 0 0 0
1269 1 16.00188696131059 12.947605022962751 1.3691238539257915 0 0 0
1276 1 14.146665607391485 14.09415468381685 3.539897394097772 0 0 0
1138 1 22.527528718925776 12.054720294825433 1.6110459868257587 0 0 0
1139 1 19.65248882002219 11.417091478177184 1.5158383142860343 0 0 0
1140 1 20.800370750671366 13.039819713607653 3.6571326038799463 0 0 0
1141 1 21.849205856482573 10.312959139088242 3.7175117040187606 0 0 0
1142 1 19.043819264667018 9.594741889169022 3.8076796354593907 0 0 0
64 1 28.018365548324276 13.904980838299704 1.2488283186987261 -1 0 0
1125 1 23.50771867454816 14.09415468381685 3.539897394097772 0 0 0
1132 1 25.36294002846726 12.947605022962751 1.3691238539257915 0 0 0
1133 1 26.40415359874858 10.30443175331284 1.566971303980392 0 0 0
1134 1 27.280635100500817 12.165078710972043 3.7598109102391777 0 0 0
1135 1 24.47762673121771 11.432395599666783 3.6066687732134106 0 0 0
70 1 0.4237266441299473 18.78148199397528 3.668417168295734 0 0 0
71 1 1.132845151101599 15.874372449620477 3.508869801354267 0 0 0
72 1 3.9271464086695027 17.148846276935796 3.676303908152436 0 0 0
73 1 2.917087000939353 14.989384349749255 1.661754433859678 0 0 0
74 1 2.3481695348268543 17.722120373751647 1.214008435654069 0 0 0
77 1 6.815847034809252 17.570190385163425 3.5769599084513626 0 0 0
78 1 7.52560155120026 14.838758809335058 3.468881974954845 0 0 0
79 1 5.822649036994183 15.936198341038537 1.4793019951219906 0 0 0
80 1 8.83000455432302 16.872913860570353 1.5040486453421944 0 0 0
1270 1 9.78477971128662 18.78148199397528 3.668417168295734 0 0 0
1271 1 10.49389821825827 15.874372449620477 3.508869801354267 0 0 0
1272 1 13.288199475826174 17.148846276935796 3.676303908152436 0 0 0
1273 1 12.278140068096025 14.989384349749255 1.661754433859678 0 0 0
1274 1 11.709222601983527 17.722120373751647 1.214008435654069 0 0 0
1277 1 16.176900101965924 17.570190385163425 3.5769599084513626 0 0 0
1278 1 16.886654618356932 14.838758809335058 3.468881974954845 0 0 0
1279 1 15.183702104150854 15.936198341038537 1.4793019951219906 0 0 0
1280 1 18.191057621479693 16.872913860570353 1.5040486453421944 0 0 0
1127 1 21.070275669140198 17.722120373751647 1.214008435654069 0 0 0
1128 1 21.639193135252697 14.989384349749255 1.661754433859678 0 0 0
1129 1 22.649252542982847 17.148846276935796 3.676303908152436 0 0 0
1130 1 19.85495128541494 15.874372449620477 3.508869801354267 0 0 0
1131 1 19.14583277844329 18.78148199397528 3.668417168295734 0 0 0
1121 1 27.55211068863636 16.872913860570353 1.5040486453421944 0 0 0
1122 1 24.544755171307525 15.936198341038537 1.4793019951219906 0 0 0
1123 1 26.247707685513603 14.838758809335058 3.468881974954845 0 0 0
1124 1 25.537953169122595 17.570190385163425 3.5769599084513626 0 0 0
81 1 1.5055609264759637 -17.72975242857209 5.542972453548542 0 0 0
82 1 2.493122737998003 -15.152780001951418 5.647883989599973 0 0 0
83 1 3.488915619921422 -17.369949084345258 7.865308682657524 0 0 0
86 1 0.42064872032661405 -16.248128546201823 7.689908767410069 0 0 0
101 1 4.302833909200118 -14.48419375699703 7.835073319523957 0 0 0
87 1 4.976982667587022 -18.883150322182875 5.47774930285664 0 1 0
88 1 5.334924832252 -16.05837412939119 5.865848996861741 0 0 0
89 1 8.10060229427939 -17.476493409183195 5.552859654383961 0 0 0
90 1 6.441084182659952 -17.78173939714974 7.745821956956219 0 0 0
91 1 7.194014974963885 -15.264276558622562 8.006963305871418 0 0 0
1302 1 9.125690192518668 -14.342048547323241 5.680566860417854 0 0 0
1281 1 10.866613993632635 -17.72975242857209 5.542972453548542 0 0 0
1282 1 11.854175805154675 -15.152780001951418 5.647883989599973 0 0 0
1283 1 12.953719008167253 -17.536793842603863 7.6148851177526184 0 0 0
1286 1 9.798614882689066 -16.264101211736048 7.674101504024557 0 0 0
1301 1 13.71513000671801 -14.373269718318374 7.962832529492177 0 0 0
1099 1 18.48674325967534 -14.342048547323241 5.680566860417854 0 0 0
1287 1 14.338035734743693 -18.883150322182875 5.47774930285664 0 1 0
1288 1 14.695977899408671 -16.05837412939119 5.865848996861741 0 0 0
1289 1 17.461655361436062 -17.476493409183195 5.552859654383961 0 0 0
1290 1 15.722744462733186 -17.715675116814854 7.7304743136098795 0 0 0
1291 1 16.579105518445168 -15.065420244240515 7.749625949561258 0 0 0
1115 1 19.395203836563986 -16.108612306616934 7.786778764438611 0 0 0
1118 1 22.155940255170233 -17.88503739272373 7.867378992647412 0 0 0
1119 1 21.215228872311346 -15.152780001951418 5.647883989599973 0 0 0
1120 1 20.227667060789308 -17.72975242857209 5.542972453548542 0 0 0
1100 1 23.177699179670846 -14.28811381528604 7.9028702278104515 0 0 0
102 1 27.84779632683201 -14.342048547323241 5.680566860417854 -1 0 0
1110 1 25.88795930818403 -15.07567086568536 8.032229745436377 0 0 0
1111 1 25.079402471415797 -17.88208186380425 7.853069380079932 0 0 0
1112 1 26.822708428592733 -17.476493409183195 5.552859654383961 0 0 0
1113 1 24.057030966565343 -16.05837412939119 5.865848996861741 0 0 0
1114 1 23.699088801900366 -18.883150322182875 5.47774930285664 0 1 0
95 1 3.5278316419480995 -12.368777414309477 6.153268079627153 0 0 0
96 1 1.304762896788009 -13.60383620786354 7.923823920325531 0 0 0
99 1 2.5940562708171853 -10.246309839150655 8.026933700192217 0 0 0
100 1 0.6866324829734429 -11.359110768032856 5.83824375092125 0 0 0
111 1 4.25199193892667 -9.541471327323652 6.0302194856546505 0 0 0
103 1 6.240973875847237 -13.106616478825009 5.931766852394331 0 0 0
104 1 7.216515721901939 -10.510414651369384 5.923299342395 0 0 0
106 1 8.109582917275436 -12.44812787365171 8.109022213339253 0 0 0
107 1 5.408962812817163 -11.610255023116112 8.057319695033648 0 0 0
1309 1 9.011962563523898 -9.589833140578634 7.937731285371053 0 0 0
1295 1 12.88888470910477 -12.368777414309477 6.153268079627153 0 0 0
1296 1 10.76059301616662 -13.478831614061809 7.791533874034198 0 0 0
1299 1 11.558219911202324 -10.48649937783765 7.996204793668091 0 0 0
1300 1 10.047685550130115 -11.359110768032856 5.83824375092125 0 0 0
1311 1 13.613045006083341 -9.541471327323652 6.0302194856546505 0 0 0
1303 1 15.602026943003908 -13.106616478825009 5.931766852394331 0 0 0
1304 1 16.57756878905861 -10.510414651369384 5.923299342395 0 0 0
1306 1 17.656478119131194 -12.353371218859397 7.829822713108033 0 0 0
1307 1 14.73416206800498 -11.205732528194584 7.913390569382752 0 0 0
1092 1 18.285324643118017 -9.400117674100583 7.792303632798361 0 0 0
1090 1 22.974098073240015 -9.541471327323652 6.0302194856546505 0 0 0
1101 1 19.408738617286787 -11.359110768032856 5.83824375092125 0 0 0
1102 1 21.031616114719125 -10.48435076928317 8.002295148586821 0 0 0
1105 1 20.29301316556297 -13.379599816711092 8.015774274958405 0 0 0
1106 1 22.249937776261444 -12.368777414309477 6.153268079627153 0 0 0
1094 1 24.161757923852843 -11.3522473255808 8.000259959242218 0 0 0
1095 1 26.956071231863437 -12.191240721351374 8.03457616173005 0 0 0
1097 1 25.93862185621528 -10.510414651369384 5.923299342395 0 0 0
1098 1 24.96308001016058 -13.106616478825009 5.931766852394331 0 0 0
109 1 27.610245370978248 -9.322684278222992 8.071972150892057 -1 0 0
112 1 1.7000306567033707 -8.52386492718873 5.9891972746049 0 0 0
113 1 2.6663573477478493 -5.47971147688253 5.827121075395244 0 0 0
115 1 0.6198879558030992 -6.725392278274119 7.988297881847054 0 0 0
116 1 3.390477593883311 -7.2960839222001646 7.973485223114734 0 0 0
118 1 4.3922986937455635 -4.446302896138799 7.737432105596273 0 0 0
120 1 8.211480138816993 -7.456360691503695 5.980282177376956 0 0 0
121 1 5.275832492362691 -6.6037489605672235 5.739426987641917 0 0 0
122 1 6.238682589550435 -8.507293921039595 7.950924213924123 0 0 0
125 1 7.0198994894022135 -5.648412261836335 7.873663660935634 0 0 0
1319 1 9.08816282856159 -4.842133096605965 5.779334620498771 0 0 0
1312 1 11.061083723860042 -8.52386492718873 5.9891972746049 0 0 0
1313 1 12.027410414904521 -5.47971147688253 5.827121075395244 0 0 0
1315 1 10.031582050161814 -6.318738015023801 7.90119037053886 0 0 0
1316 1 12.755109582124282 -7.578408583865187 7.813856840207367 0 0 0
1318 1 13.505282835263134 -4.8110198029526146 8.047159469826708 0 0 0
1082 1 18.44921589571826 -4.842133096605965 5.779334620498771 0 0 0
1320 1 17.572533205973663 -7.456360691503695 5.980282177376956 0 0 0
1321 1 14.636885559519364 -6.6037489605672235 5.739426987641917 0 0 0
1322 1 15.575963328769106 -8.50730376297276 7.719748754121865 0 0 0
1325 1 16.325512543997213 -5.620247198205664 7.946088024046714 0 0 0
1085 1 22.107172802024913 -7.4705186884602774 8.08660754952347 0 0 0
1086 1 19.34666143485547 -6.633297285482673 7.879275961682404 0 0 0
1088 1 21.38846348206119 -5.47971147688253 5.827121075395244 0 0 0
1089 1 20.42213679101671 -8.52386492718873 5.9891972746049 0 0 0
1083 1 23.106867600018877 -4.822070301317283 7.812005251902856 0 0 0
119 1 27.810268962874932 -4.842133096605965 5.779334620498771 -1 0 0
1076 1 25.92079869952263 -5.755174714927698 7.758490682941061 0 0 0
1079 1 25.12112498665056 -8.445256458156953 7.958431975347062 0 0 0
1080 1 23.997938626676035 -6.6037489605672235 5.739426987641917 0 0 0
1081 1 26.933586273130338 -7.456360691503695 5.980282177376956 0 0 0
127 1 3.377486215009772 -2.8832837575662005 5.657919737899098 0 0 0
128 1 0.7193099509404222 -1.8792045577882028 5.807962070002986 0 0 0
129 1 1.454159688789066 -3.8232594973000844 7.989431621788523 0 0 0
132 1 2.488587344515912 -1.2893025208438997 7.70278872379213 0 0 0
135 1 6.933750098200946 -0.9435670397983955 6.03906988085019 0 0 0
136 1 6.228325110210148 -3.659081367552071 5.76841994251394 0 0 0
137 1 5.353675396318993 -1.9173387454966684 8.0720113358492 0 0 0
138 1 8.104377639155175 -2.8813496845373834 7.9572878916565015 0 0 0
1327 1 12.738539282166442 -2.8832837575662005 5.657919737899098 0 0 0
1328 1 10.080363018097094 -1.8792045577882028 5.807962070002986 0 0 0
1329 1 10.817332786146332 -3.8825695198676233 7.85564731470874 0 0 0
1332 1 11.896481654196917 -1.4122423920616136 8.204685497119263 0 0 0
1335 1 16.294803165357617 -0.9435670397983955 6.03906988085019 0 0 0
1336 1 15.589378177366818 -3.659081367552071 5.76841994251394 0 0 0
1337 1 14.470331824990838 -2.222946271444244 8.018088958688582 0 0 0
1338 1 17.47182522782377 -2.7887933221171575 7.9329022749198375 0 0 0
1069 1 21.014196424706657 -1.2311701049199828 7.849840190448862 0 0 0
1072 1 20.1093261223822 -3.8583885076406514 7.963648437670537 0 0 0
1073 1 19.441416085253763 -1.8792045577882028 5.807962070002986 0 0 0
1074 1 22.099592349323114 -2.8832837575662005 5.657919737899098 0 0 0
1063 1 26.86636976515493 -2.5806235635974377 7.966328600832595 0 0 0
1064 1 23.917824331121253 -2.1536478453259273 8.065150402574343 0 0 0
1065 1 24.95043124452349 -3.659081367552071 5.76841994251394 0 0 0
1066 1 25.65585623251429 -0.9435670397983955 6.03906988085019 0 0 0
134 1 4.360521441280311 0.00030750170094506757 6.318697921234037 0 0 0
142 1 1.1126105786060518 1.4980956991777 5.467128266654546 0 0 0
143 1 2.1783979131212243 1.3179399024502334 8.047992591463801 0 0 0
144 1 2.432880983008003 4.220911271483594 8.178317193356625 0 0 0
146 1 4.2968670916845255 2.8385625671399453 6.1413637480308045 0 0 0
156 1 0.19892686353731062 4.727836063751521 5.832431582717065 0 0 0
141 1 27.853361329468047 0.015676387629842897 7.770613955075085 -1 0 0
148 1 9.244498513668312 3.115685707161876 7.91587306380283 0 0 0
149 1 7.584498861985959 1.7340324923967252 6.051392414090172 0 0 0
150 1 6.780294808781918 4.115879544682745 5.796936934834435 0 0 0
151 1 6.349669726550964 0.9856263653199471 8.290489246903974 0 0 0
1341 1 9.27453543147304 -0.031270590126235405 7.927891088890355 0 0 0
1334 1 13.721574508436984 0.00030750170094506757 6.318697921234037 0 0 0
1342 1 10.473663645762723 1.4980956991777 5.467128266654546 0 0 0
1343 1 12.084779181986564 1.4010319154323265 7.994473291708954 0 0 0
1344 1 11.810111442389774 4.030723655381639 8.073162423232304 0 0 0
1346 1 13.657920158841197 2.8385625671399453 6.1413637480308045 0 0 0
1356 1 9.559979930693983 4.727836063751521 5.832431582717065 0 0 0
1348 1 18.539283511889547 3.007530252509455 7.8537539896769815 0 0 0
1349 1 16.94555192914263 1.7340324923967252 6.051392414090172 0 0 0
1350 1 16.14134787593859 4.115879544682745 5.796936934834435 0 0 0
1351 1 15.277939726223511 1.926363469418666 8.343040089999903 0 0 0
1060 1 18.150433336980438 0.0513350001862682 8.051352440755615 0 0 0
1045 1 18.921032997850652 4.727836063751521 5.832431582717065 0 0 0
1055 1 23.01897322599787 2.8385625671399453 6.1413637480308045 0 0 0
1057 1 21.24713059088143 4.026201613898525 7.872846282962128 0 0 0
1058 1 21.228025780727073 1.4143144774989354 8.1511701460073 0 0 0
1059 1 19.834716712919395 1.4980956991777 5.467128266654546 0 0 0
1067 1 23.082627575593655 0.00030750170094506757 6.318697921234037 0 0 0
1050 1 24.412364030250934 1.5770880330465822 8.527684926835786 0 0 0
1051 1 25.50240094309526 4.115879544682745 5.796936934834435 0 0 0
1052 1 26.306604996299303 1.7340324923967252 6.051392414090172 0 0 0
1053 1 28.047038706524454 2.93518786529813 7.979638406001836 0 0 0
157 1 3.1886050684782 5.70864054558529 5.784333056141015 0 0 0
158 1 2.4332113240722895 8.439150851455523 6.176201999756577 0 0 0
159 1 1.6246286376109418 6.7967509780006 8.243277615383397 0 0 0
162 1 4.182098524063166 7.374973173230895 8.173691812785409 0 0 0
154 1 5.279278504578642 4.575936480795357 8.117004772230011 0 0 0
163 1 6.013785637575815 6.831049613066686 5.837446470766127 0 0 0
164 1 8.878387827298948 7.548049230684381 5.937914361128937 0 0 0
166 1 6.606498901356144 8.490616685042186 7.929375799770183 0 0 0
167 1 7.896265120103101 5.765518628063795 8.068602910753453 0 0 0
176 1 4.9034785339775535 9.504039517856409 5.7003520729213655 0 0 0
1357 1 12.549658135634871 5.70864054558529 5.784333056141015 0 0 0
1358 1 11.79426439122896 8.439150851455523 6.176201999756577 0 0 0
1359 1 10.864706684853683 6.632848427283224 8.139762302314809 0 0 0
1362 1 13.466484868618817 7.740968900366066 8.074248553819785 0 0 0
1354 1 14.419945087008323 4.587011523506963 8.087281820060827 0 0 0
1363 1 15.374838704732486 6.831049613066686 5.837446470766127 0 0 0
1364 1 18.23944089445562 7.548049230684381 5.937914361128937 0 0 0
1366 1 16.125360526559568 8.316381088952486 8.03390130455648 0 0 0
1367 1 17.274821764177478 5.60002042070763 7.96823357857969 0 0 0
1376 1 14.264531601134225 9.504039517856409 5.7003520729213655 0 0 0
1039 1 22.85625883089437 7.428725615194385 7.97299370140882 0 0 0
1042 1 19.968716155641502 6.357671649689872 7.994702024656412 0 0 0
1043 1 21.155317458385632 8.439150851455523 6.176201999756577 0 0 0
1044 1 21.910711202791543 5.70864054558529 5.784333056141015 0 0 0
1047 1 24.00931567096658 4.800174726747511 7.958537977194707 0 0 0
1025 1 23.625584668290898 9.504039517856409 5.7003520729213655 0 0 0
1034 1 26.732217788038835 5.854122298703641 7.891008993026882 0 0 0
1035 1 25.420500516099736 8.446432578489294 7.739838320684459 0 0 0
1037 1 27.60049396161229 7.548049230684381 5.937914361128937 0 0 0
1038 1 24.735891771889158 6.831049613066686 5.837446470766127 0 0 0
177 1 0.3287047121480471 9.363940754995411 8.089829874517687 0 0 0
169 1 1.0130793627187344 11.212212394983947 5.940035951314753 0 0 0
170 1 3.751047056161817 12.221981894091908 5.7023447621219 0 0 0
172 1 3.1896081526952806 10.223618479551766 8.073970497133146 0 0 0
173 1 2.0156725341098642 13.353169589099169 7.698165329276772 0 0 0
175 1 0.20819639894593922 13.951366312482836 5.556600170506153 0 0 0
179 1 7.608446888201557 10.367278753023083 5.871340418821848 0 0 0
180 1 6.757760403955501 13.155080673606914 5.64743989179106 0 0 0
181 1 5.718720805024702 11.332537697288181 7.834166100915904 0 0 0
184 1 8.596757955941968 12.302396994551748 7.803299616412514 0 0 0
1377 1 9.459940038706621 9.456366925331137 7.961143499011726 0 0 0
1369 1 10.374132429875406 11.212212394983947 5.940035951314753 0 0 0
1370 1 13.112100123318488 12.221981894091908 5.7023447621219 0 0 0
1372 1 12.275283529374489 10.440885282732884 7.919323229435037 0 0 0
1373 1 11.443024268299714 13.157162585395438 7.769902097285816 0 0 0