LAMMPS data file via write_data, version 29 Sep 2021, timestep = 233

36 atoms
2 atom types

0 9.30324990958494 xlo xhi
-8.731892862684722 8.731892862684722 ylo yhi
0 4.16053984190014 zlo zhi

Masses

1 107.8682
2 107.8682

Atoms # atomic

28 2 1.4487674657827203 -5.698001824978025 3.9062846293352655 0 0 -1
29 2 5.028002154371667 -7.507097348105199 3.906284629336805 0 0 -1
31 2 3.224286130161234 -6.472064436762392 1.826014708385831 0 0 0
36 2 9.083477952207561 -4.740816526288721 1.8260147083843825 -1 0 0
19 1 2.196310832960678 -8.417303186821593 3.906284629337483 1 1 0
25 2 0.37637719957919735 -7.507097348105201 1.8260147083867364 1 0 0
30 2 6.100392420575189 -5.6980018249780215 1.8260147083851956 0 0 0
33 2 7.875911084953705 -6.472064436762392 3.9062846293359 0 0 -1
32 2 4.431852997415092 -4.740816526288725 3.906284629334453 0 0 -1
15 1 6.8479357877531495 -8.417303186821593 1.8260147083874136 0 1 0
24 2 0.5634651028610097 -2.0638892717068047 1.826014708393833 0 0 0
26 2 3.439571393274966 -1.2898266599224393 1.826014708393198 0 0 0
27 2 2.232004526021108 -3.0210745703961024 3.9062846293447153 0 0 -1
4 1 1.6358553690645325 -0.2547937485796316 3.9062846293423616 1 0 0
23 2 5.21509005765348 -2.0638892717068034 3.9062846293439026 0 0 -1
34 2 6.883629480813579 -3.0210745703961064 1.826014708394645 0 0 0
35 2 8.091196348067436 -1.2898266599224368 3.906284629343268 0 0 -1
1 1 6.287480323857001 -0.2547937485796293 1.8260147083922926 0 0 0
3 1 9.119171645267992 0.6554120901367626 1.8260147083916147 0 0 0
8 1 0.8661700163615201 2.523808705981148 3.9062846293406794 1 0 0
11 1 2.677666792508274 1.5609819862581853 1.82601470839116 1 0 0
13 1 3.7116745736610905 3.4500804468394373 3.9062846293402407 1 0 0
2 1 7.329291747300743 1.5609819862581857 3.9062846293412297 0 0 0
7 1 8.36329952845356 3.4500804468394373 1.8260147083901708 0 0 0
12 1 4.467546690475522 0.6554120901367616 3.9062846293416844 1 0 0
14 1 5.51779497115399 2.523808705981147 1.8260147083906104 1 0 0
10 1 1.9102417127602749 4.377199661112502 1.8260147083897371 1 0 0
9 1 0.10199085588345677 5.324694967572111 3.906284629339361 1 0 0
17 1 1.1460625522822112 7.178085922703465 1.8260147083884182 1 0 0
18 1 2.952182949775111 6.2518141818451785 3.906284629338928 1 0 0
20 1 3.9861907309279276 8.14091264242643 1.8260147083878684 1 0 0
5 1 6.561866667552744 4.377199661112502 3.9062846293398072 0 0 0
6 1 7.60380790456758 6.251814181845179 1.8260147083888576 0 0 0
16 1 8.637815685720398 8.140912642426432 3.906284629337938 0 0 0
21 1 4.753615810675927 5.324694967572111 1.8260147083892913 1 0 0
22 1 5.797687507074681 7.178085922703467 3.906284629338488 1 0 0

Velocities

28 0 0 0
29 0 0 0
31 0 0 0
36 0 0 0
19 0 0 0
25 0 0 0
30 0 0 0
33 0 0 0
32 0 0 0
15 0 0 0
24 0 0 0
26 0 0 0
27 0 0 0
4 0 0 0
23 0 0 0
34 0 0 0
35 0 0 0
1 0 0 0
3 0 0 0
8 0 0 0
11 0 0 0
13 0 0 0
2 0 0 0
7 0 0 0
12 0 0 0
14 0 0 0
10 0 0 0
9 0 0 0
17 0 0 0
18 0 0 0
20 0 0 0
5 0 0 0
6 0 0 0
16 0 0 0
21 0 0 0
22 0 0 0
