LAMMPS data file via write_data, version 29 Sep 2021, timestep = 294

34 atoms
2 atom types

0 9.30324990958494 xlo xhi
-7.842096503014425 7.842096503014425 ylo yhi
0 4.16053984190014 zlo zhi

Masses

1 107.8682
2 107.8682

Atoms # atomic

28 2 0.6306208588963279 -5.120571497141814 3.891328440365434 0 0 -1
31 2 2.5459958402814613 -6.043171085731748 1.8110585194153646 0 0 0
15 1 9.112995776459064 -6.96577067432168 1.8110585194153646 0 1 0
30 2 5.282245813688797 -5.120571497141814 1.8110585194153643 0 0 0
33 2 7.197620795073931 -6.043171085731748 3.8913284403654345 0 0 -1
19 1 4.461370821666594 -6.965770674321681 3.8913284403654345 1 1 0
24 2 2.2723708429407314 -1.4301731427820847 3.8913284403654345 0 0 -1
25 2 4.187745824325867 -2.3527727313720166 1.8110585194153646 0 0 0
26 2 3.3668708323036642 -4.197971908551883 3.8913284403654345 0 0 -1
27 2 1.4514958509185294 -3.2753723199619493 1.8110585194153646 0 0 0
1 1 0.35699586155559687 -0.5075735541921522 1.8110585194153643 1 0 0
23 2 6.923995797733204 -1.430173142782085 1.8110585194153646 0 0 0
29 2 8.839370779118335 -2.3527727313720166 3.8913284403654345 0 0 -1
32 2 6.103120805711001 -3.27537231996195 3.8913284403654345 0 0 -1
34 2 8.018495787096134 -4.197971908551883 1.8110585194153646 0 0 0
4 1 5.008620816348067 -0.507573554192153 3.8913284403654345 1 0 0
2 1 1.177870853577796 1.3376256229877126 3.891328440365434 1 0 0
3 1 3.093245834962932 0.4150260343977804 1.8110585194153646 1 0 0
7 1 1.998745845599995 3.182824800167575 1.811058519415364 1 0 0
8 1 3.9141208269851306 2.2602252115776436 3.891328440365434 1 0 0
11 1 5.829495808370267 1.3376256229877124 1.8110585194153646 1 0 0
12 1 7.744870789755402 0.41502603439778035 3.8913284403654345 1 0 0
13 1 6.650370800392466 3.182824800167575 3.891328440365434 1 0 0
14 1 8.565745781777599 2.2602252115776436 1.8110585194153646 1 0 0
5 1 0.08337086421485895 4.10542438875751 3.891328440365434 1 0 0
6 1 0.9042458562370587 5.950623565937372 1.811058519415364 1 0 0
9 1 2.8196208376221943 5.02802397734744 3.891328440365434 1 0 0
16 1 1.725120848259259 7.795822743117237 3.891328440365434 1 0 0
17 1 3.640495829644394 6.873223154527305 1.8110585194153646 1 0 0
10 1 4.734995819007331 4.105424388757508 1.8110585194153643 1 0 0
18 1 5.555870811029529 5.950623565937371 3.8913284403654345 1 0 0
20 1 6.376745803051728 7.795822743117238 1.8110585194153646 1 0 0
21 1 7.471245792414664 5.02802397734744 1.8110585194153646 1 0 0
22 1 8.292120784436863 6.873223154527305 3.8913284403654345 1 0 0

Velocities

28 0 0 0
31 0 0 0
15 0 0 0
30 0 0 0
33 0 0 0
19 0 0 0
24 0 0 0
25 0 0 0
26 0 0 0
27 0 0 0
1 0 0 0
23 0 0 0
29 0 0 0
32 0 0 0
34 0 0 0
4 0 0 0
2 0 0 0
3 0 0 0
7 0 0 0
8 0 0 0
11 0 0 0
12 0 0 0
13 0 0 0
14 0 0 0
5 0 0 0
6 0 0 0
9 0 0 0
16 0 0 0
17 0 0 0
10 0 0 0
18 0 0 0
20 0 0 0
21 0 0 0
22 0 0 0
