LAMMPS data file via write_data, version 29 Sep 2021, timestep = 136

38 atoms
2 atom types

0 9.30324990958494 xlo xhi
-9.133835053401278 9.133835053401278 ylo yhi
0 4.16053984190014 zlo zhi

Masses

1 107.8682
2 107.8682

Atoms # atomic

27 2 2.2030507577580494 -8.137709806762098 2.321143280224412 0 0 0
28 2 1.352180798729225 -6.228455495091188 0.24087335938289153 0 0 0
29 2 4.148512334062125 -6.8772397939130645 0.24087335942407676 0 0 0
31 2 3.198527290309555 -5.182304756341478 2.321143280360672 0 0 0
24 2 6.854675712547556 -8.137709806760897 0.24087335927433626 0 0 0
25 2 8.800137288857123 -6.877239793895142 2.3211432803741516 0 0 0
30 2 6.003805753524145 -6.228455495090326 2.321143280332968 0 0 0
33 2 7.850152245102502 -5.182304756343921 0.2408733594105981 0 0 0
26 2 1.4012293731700638 -1.679835135153821 2.321143280374154 0 0 0
36 2 0.44905837618306 -4.278537464640989 2.3211432803453604 0 0 0
37 2 2.351214416912683 -3.374770172850345 0.24087335941059637 0 0 0
38 2 4.197560908451634 -2.3286194341293966 2.3211432803329837 0 0 0
4 1 3.3466909496394845 -0.41936512253249575 0.2408733592744148 1 0 1
23 2 6.052854327968073 -1.6798351351208742 0.24087335942408752 0 0 0
32 2 5.1006833309729664 -4.278537464648883 0.24087335939528784 0 0 0
34 2 7.002839371708581 -3.3747701728548156 2.3211432803606686 0 0 0
35 2 8.84918586324909 -2.328619434129819 0.2408733593829165 0 0 0
1 1 7.998315904427791 -0.4193651225306491 2.321143280224476 0 0 0
3 1 1.7927955266831064 0.9211659989909099 2.321143280130469 1 0 0
7 1 0.8813825874976801 3.5076755705398757 2.321143280109709 1 0 0
8 1 2.789449048031465 2.5524447513208193 0.24087335916899288 1 0 1
10 1 3.7006894442771507 4.347883770261725 2.321143280109495 1 0 0
11 1 4.5971523492283 1.410436754427117 2.321143280137255 1 0 0
2 1 9.248777304026772 1.4104367544275738 0.2408733591872061 0 0 1
5 1 8.35231439906377 4.347883770258367 0.24087335915943345 0 0 1
12 1 6.444420481478316 0.9211659989459506 0.24087335918042777 1 0 1
13 1 5.533007542279203 3.5076755705720672 0.24087335915964858 1 0 1
14 1 7.441074002831388 2.552444751328003 2.3211432801190335 1 0 0
6 1 0.01673416572228928 6.2029196070305135 2.32114328010968 1 0 0
9 1 1.849052263763993 5.3627114072558735 0.2408733591594008 1 0 1
16 1 0.9525893587043675 8.300158422908954 0.24087335918709238 1 0 1
17 1 2.7602926599676905 7.1581504262197955 2.3211432801189877 1 0 0
19 1 3.756946181198214 8.789429178603724 0.24087335918028527 1 0 1
15 1 8.408571135993505 8.789429178570494 2.321143280130375 0 0 0
18 1 4.668359120524298 6.202919607002076 0.24087335915960859 1 0 1
20 1 5.604214313501347 8.300158422909488 2.3211432801371763 1 0 0
21 1 6.500677218551063 5.3627114072521405 2.321143280109473 1 0 0
22 1 7.411917614766234 7.158150426225215 0.240873359168899 1 0 1

Velocities

27 0 0 0
28 0 0 0
29 0 0 0
31 0 0 0
24 0 0 0
25 0 0 0
30 0 0 0
33 0 0 0
26 0 0 0
36 0 0 0
37 0 0 0
38 0 0 0
4 0 0 0
23 0 0 0
32 0 0 0
34 0 0 0
35 0 0 0
1 0 0 0
3 0 0 0
7 0 0 0
8 0 0 0
10 0 0 0
11 0 0 0
2 0 0 0
5 0 0 0
12 0 0 0
13 0 0 0
14 0 0 0
6 0 0 0
9 0 0 0
16 0 0 0
17 0 0 0
19 0 0 0
15 0 0 0
18 0 0 0
20 0 0 0
21 0 0 0
22 0 0 0
