LAMMPS data file via write_data, version 29 Sep 2021, timestep = 426

76 atoms
2 atom types

0 9.30324990958494 xlo xhi
-17.926006089328162 17.926006089328162 ylo yhi
0 4.16053984190014 zlo zhi

Masses

1 107.8682
2 107.8682

Atoms # atomic

48 2 0.9954743487770497 -15.27033636347689 4.160539841900139 0 0 -1
49 2 3.6647380177227222 -16.48126561435636 4.160539841900139 0 0 -1
51 2 2.834999475324779 -14.609270443272663 2.08026992095007 0 0 0
56 2 0.03268010682840323 -13.599105760139011 2.08026992095007 0 0 0
35 1 0.41092077400491867 -17.853341737878218 0 1 1 0
45 2 8.316362972515192 -16.481265614356367 2.08026992095007 0 0 0
50 2 5.647099303569523 -15.270336363476886 2.0802699209500704 0 0 0
53 2 7.4866244301172475 -14.60927044327266 3.712922616177034e-16 0 0 0
52 2 4.684305061620876 -13.599105760139011 8.881784197001252e-16 0 0 0
39 1 5.062545728797393 -17.853341737878214 2.0802699209500704 1 1 0
57 2 1.9582393639683136 -12.637168333230266 1.2857932202482191e-17 0 0 0
58 2 3.821614671463948 -11.765469070660002 2.0802699209500704 0 0 0
59 2 1.0485928546721 -10.820900513108967 2.08026992095007 0 0 0
60 2 2.9397205181793202 -9.88410744271994 0 0 0 0
66 2 0.16468193336118186 -8.96305374862828 0 0 0 0
54 2 6.609864318760781 -12.63716833323027 2.08026992095007 0 0 0
55 2 8.47323962625642 -11.765469070660002 0 0 0 0
61 2 5.7002178094645695 -10.820900513108963 0 0 0 0
62 2 7.591345472971792 -9.88410744271994 2.0802699209500695 0 0 0
63 2 4.816306888153651 -8.963053748628274 2.08026992095007 0 0 0
67 2 2.0412683033355132 -8.042000054536617 2.08026992095007 0 0 0
68 2 1.1593741500508827 -6.160638426596553 0 0 0 0
69 2 3.932395966842734 -7.105206984147588 3.566583994082687e-16 0 0 0
71 2 3.0227494575465195 -5.288939164026283 2.08026992095007 0 0 0
64 2 6.692893258127983 -8.042000054536608 8.774051853361486e-17 0 0 0
65 2 8.584020921635203 -7.105206984147588 2.0802699209500704 0 0 0
70 2 5.810999104843355 -6.160638426596555 2.08026992095007 0 0 0
73 2 7.6743744123389925 -5.288939164026282 0 0 0 0
44 2 1.3162508037921097 -1.4448418829001914 2.0802699209500695 0 0 0
46 2 3.9855144727377847 -2.655771133779663 2.08026992095007 0 0 0
47 2 2.1459893461900568 -3.316837053983888 0 0 0 0
76 2 0.29668375989396095 -4.32700173711754 2.08026992095007 0 0 0
4 1 4.570068047509898 -0.07276575937832987 2.0802699209500695 1 0 0
43 2 5.967875758584579 -1.4448418829001806 0 0 0 0
72 2 4.948308714686429 -4.327001737117539 0 0 0 0
74 2 6.797614300982527 -3.3168370539838876 2.0802699209500704 0 0 0
75 2 8.637139427530256 -2.655771133779658 0 0 0 0
1 1 9.221693002302366 -0.07276575937833618 0 0 0 0
2 1 0.9740682845339627 1.5256166087993135 2.08026992095007 1 0 0
3 1 2.73173599981285 0.3184378441874909 0 1 0 0
7 1 1.9104296059956845 3.322396974305707 1.7901204244212727e-16 1 0 0
8 1 3.716570969922603 2.518572318396753 2.08026992095007 1 0 0
10 1 4.723485202321654 4.307459988369168 0 1 0 0
5 1 0.0718602475291874 4.307459988369169 2.08026992095007 1 0 0
11 1 5.625693239326434 1.5256166087993221 0 1 0 0
12 1 7.383360954605316 0.3184378441874838 2.08026992095007 1 0 0
13 1 6.562054560788157 3.3223969743057036 2.08026992095007 1 0 0
14 1 8.36819592471507 2.51857231839676 0 1 0 0
6 1 1.0360714939471425 6.155183868771134 0 1 0 0
9 1 2.8662052379644862 5.247948049330528 2.0802699209500695 1 0 0
15 1 0.16468193336117223 8.96295234069989 6.660531157382725e-17 1 0 0
16 1 2.0029158624643837 8.032850474031152 2.08026992095007 1 0 0
19 1 3.8470000294630617 7.0998646118519 7.400200371001388e-17 1 0 0
20 1 5.68769644873961 6.155183868771133 2.08026992095007 1 0 0
21 1 4.816306888153643 8.96295234069989 2.08026992095007 1 0 0
22 1 6.654540817256852 8.032850474031141 0 1 0 0
23 1 7.517830192756959 5.247948049330526 0 1 0 0
24 1 8.498624984255532 7.099864611851904 2.08026992095007 1 0 0
17 1 1.1339887920517575 10.826040069547876 2.08026992095007 1 0 0
18 1 2.978072959050436 9.893054207368637 0 1 0 0
27 1 2.114783583550325 12.677956632069247 2.7128539377384673e-16 1 0 0
28 1 3.9449173275676768 11.770720812628642 2.0802699209500704 1 0 0
31 1 5.785613746844229 10.826040069547874 1.4905172959211997e-16 1 0 0
32 1 7.629697913842903 9.893054207368637 2.0802699209500695 1 0 0
33 1 6.766408538342798 12.677956632069247 2.08026992095007 1 0 0
34 1 8.596542282360145 11.770720812628644 2.2513377624409427e-16 1 0 0
25 1 0.25750361919316167 13.618444693030593 2.08026992095007 1 0 0
26 1 1.2644178515922173 15.40733236300301 0 1 0 0
29 1 3.0705592155191352 14.603507707094067 2.08026992095007 1 0 0
36 1 2.249252821701968 17.607466837212293 2.0802699209500695 1 0 0
37 1 4.006920536980857 16.400288072600457 4.160539841900139 1 0 -1
30 1 4.909128573985633 13.618444693030597 6.423680057664898e-16 1 0 0
38 1 5.916042806384686 15.407332363003023 2.0802699209500704 1 0 0
40 1 6.900877776494438 17.607466837212293 0 1 0 0
41 1 7.722184170311606 14.603507707094066 0 1 0 0
42 1 8.658545491773326 16.40028807260046 2.0802699209500695 1 0 0

Velocities

48 0 0 0
49 0 0 0
51 0 0 0
56 0 0 0
35 0 0 0
45 0 0 0
50 0 0 0
53 0 0 0
52 0 0 0
39 0 0 0
57 0 0 0
58 0 0 0
59 0 0 0
60 0 0 0
66 0 0 0
54 0 0 0
55 0 0 0
61 0 0 0
62 0 0 0
63 0 0 0
67 0 0 0
68 0 0 0
69 0 0 0
71 0 0 0
64 0 0 0
65 0 0 0
70 0 0 0
73 0 0 0
44 0 0 0
46 0 0 0
47 0 0 0
76 0 0 0
4 0 0 0
43 0 0 0
72 0 0 0
74 0 0 0
75 0 0 0
1 0 0 0
2 0 0 0
3 0 0 0
7 0 0 0
8 0 0 0
10 0 0 0
5 0 0 0
11 0 0 0
12 0 0 0
13 0 0 0
14 0 0 0
6 0 0 0
9 0 0 0
15 0 0 0
16 0 0 0
19 0 0 0
20 0 0 0
21 0 0 0
22 0 0 0
23 0 0 0
24 0 0 0
17 0 0 0
18 0 0 0
27 0 0 0
28 0 0 0
31 0 0 0
32 0 0 0
33 0 0 0
34 0 0 0
25 0 0 0
26 0 0 0
29 0 0 0
36 0 0 0
37 0 0 0
30 0 0 0
38 0 0 0
40 0 0 0
41 0 0 0
42 0 0 0
