LAMMPS data file via write_data, version 29 Sep 2021, timestep = 401

40 atoms
2 atom types

0 9.30324990958494 xlo xhi
-9.602634692392543 9.602634692392543 ylo yhi
0 4.16053984190014 zlo zhi

Masses

1 107.8682
2 107.8682

Atoms # atomic

27 2 2.149697956441416 -8.594414813526459 1.8514402296455739 0 0 0
28 2 1.117605501797657 -6.698567713131459 3.9317101505956438 0 0 -1
29 2 3.926646783723842 -7.279427313828835 3.931710150595644 0 0 -1
31 2 2.9367155823927753 -5.651074914511379 1.851440229645574 0 0 0
24 2 6.801322911233888 -8.59441481352646 3.9317101505956433 0 0 -1
25 2 8.578271738516312 -7.279427313828855 1.8514402296455739 0 0 0
30 2 5.769230456590126 -6.698567713131458 1.8514402296455739 0 0 0
33 2 7.5883405371852435 -5.651074914511377 3.931710150595644 0 0 -1
36 2 0.21849954361385723 -4.673918092518164 1.8514402296455743 0 0 0
37 2 2.05467419177603 -3.7930974673301776 3.931710150595644 0 0 -1
38 2 3.8908488399381818 -2.912276842142303 1.8514402296455748 0 0 0
39 2 1.1726328011592964 -1.9351200201490923 1.8514402296455756 0 0 0
4 1 2.9917428817544076 -0.8876272215287464 3.9317101505956447 1 0 0
23 2 0.18270159982822742 -0.3067676208317404 3.931710150595646 0 0 -1
32 2 4.870124498406327 -4.6739180925181705 3.931710150595644 0 0 -1
34 2 6.706299146568501 -3.793097467330178 1.8514402296455743 0 0 0
35 2 8.542473794730654 -2.912276842142294 3.931710150595644 0 0 -1
40 2 5.824257755951772 -1.9351200201490928 3.931710150595646 0 0 -1
1 1 7.643367836546882 -0.887627221528745 1.8514402296455756 0 0 0
26 2 4.834326554620701 -0.3067676208317161 1.8514402296455756 0 0 0
2 1 0.18270159982733553 2.3232073785637164 3.931710150595644 1 0 0
3 1 1.9596504271097612 1.0082198788660823 1.851440229645575 1 0 0
7 1 1.1726328011584015 3.9515597778811618 1.8514402296455743 1 0 0
8 1 2.9917428817535217 2.904066979261081 3.9317101505956438 1 0 0
11 1 4.834326554619809 2.3232073785636955 1.851440229645574 1 0 0
12 1 6.61127538190223 1.0082198788660819 3.9317101505956447 1 0 0
13 1 5.824257755950877 3.951559777881164 3.9317101505956438 1 0 0
14 1 7.643367836545995 2.9040669792610805 1.851440229645574 1 0 0
10 1 3.8908488399373207 4.928716599874377 1.851440229645574 1 0 0
6 1 0.21849954361299959 6.690357850250232 1.8514402296455739 1 0 0
9 1 2.0546741917751454 5.809537225062364 3.9317101505956438 1 0 0
16 1 1.1176055017967712 8.715007470863794 3.9317101505956433 1 0 0
17 1 2.936715582391878 7.667514672243444 1.8514402296455739 1 0 0
19 1 3.9266467837229477 9.295867071560819 3.9317101505956433 1 0 0
5 1 8.542473794729796 4.928716599874369 3.9317101505956438 0 0 0
15 1 8.578271738515413 9.29586707156084 1.8514402296455736 0 0 0
18 1 4.870124498405466 6.690357850250241 3.9317101505956433 1 0 0
20 1 5.7692304565892405 8.715007470863794 1.8514402296455736 1 0 0
21 1 6.7062991465676145 5.809537225062364 1.8514402296455739 1 0 0
22 1 7.588340537184344 7.667514672243446 3.9317101505956433 1 0 0

Velocities

27 0 0 0
28 0 0 0
29 0 0 0
31 0 0 0
24 0 0 0
25 0 0 0
30 0 0 0
33 0 0 0
36 0 0 0
37 0 0 0
38 0 0 0
39 0 0 0
4 0 0 0
23 0 0 0
32 0 0 0
34 0 0 0
35 0 0 0
40 0 0 0
1 0 0 0
26 0 0 0
2 0 0 0
3 0 0 0
7 0 0 0
8 0 0 0
11 0 0 0
12 0 0 0
13 0 0 0
14 0 0 0
10 0 0 0
6 0 0 0
9 0 0 0
16 0 0 0
17 0 0 0
19 0 0 0
5 0 0 0
15 0 0 0
18 0 0 0
20 0 0 0
21 0 0 0
22 0 0 0
