LAMMPS data file via write_data, version 29 Sep 2021, timestep = 171

34 atoms
2 atom types

0 9.30324990958494 xlo xhi
-7.842096503014431 7.842096503014431 ylo yhi
0 4.16053984190014 zlo zhi

Masses

1 107.8682
2 107.8682

Atoms # atomic

28 2 8.524060349670174 -4.52084705892825 0.8076342046041475 -1 0 0
29 2 3.0515604028554963 -6.366046236108098 0.8076342046041475 0 0 0
31 2 1.1361854214703664 -5.44344664751817 2.887904125554218 0 0 0
19 1 0.3153104294481754 -7.288645824698044 0.8076342046041478 1 1 1
25 2 7.703185357647968 -6.366046236108099 2.8879041255542175 0 0 0
30 2 3.8724353948777055 -4.52084705892825 2.8879041255542175 0 0 0
33 2 5.787810376262836 -5.44344664751817 0.8076342046041473 0 0 0
15 1 4.966935384240646 -7.288645824698045 2.8879041255542175 0 1 0
23 2 2.777935405514792 -1.7530482931584341 2.8879041255542175 0 0 0
24 2 1.957060413492583 -3.598247470338282 0.8076342046041475 0 0 0
32 2 4.6933103868999195 -2.6756478817483598 0.8076342046041476 0 0 0
4 1 0.8625604241296402 -0.8304487045684866 0.8076342046041478 1 0 1
26 2 0.04168543210745845 -2.6756478817483593 2.8879041255542175 0 0 0
27 2 7.429560360307263 -1.7530482931584326 0.8076342046041476 0 0 0
34 2 6.608685368285056 -3.5982474703382805 2.8879041255542175 0 0 0
1 1 5.514185378922111 -0.830448704568487 2.8879041255542175 0 0 0
10 1 0.588935426788908 3.7825492383811623 2.8879041255542175 1 0 0
11 1 1.6834354161518499 1.0147504726113743 2.8879041255542175 1 0 0
12 1 3.598810397536976 0.092150884021437 0.8076342046041476 1 0 1
13 1 2.5043104081740517 2.859949649791228 0.8076342046041473 1 0 1
14 1 4.419685389559181 1.937350061201319 2.8879041255542175 1 0 0
2 1 6.335060370944321 1.0147504726113756 0.8076342046041475 0 0 1
3 1 8.250435352329445 0.09215088402143697 2.8879041255542175 0 0 0
5 1 5.240560381581378 3.7825492383811623 0.8076342046041477 0 0 1
7 1 7.155935362966523 2.859949649791228 2.8879041255542175 0 0 0
8 1 9.07131034435165 1.9373500612013188 0.8076342046041475 0 0 1
18 1 1.4098104188111047 5.627748415561012 0.8076342046041476 1 0 1
20 1 2.2306854108333094 7.472947592740893 2.8879041255542175 1 0 0
21 1 3.3251854001962333 4.705148826971099 2.8879041255542175 1 0 0
22 1 4.146060392218435 6.5503480041509565 0.8076342046041473 1 0 1
6 1 6.061435373603576 5.6277484155610145 2.8879041255542175 0 0 0
9 1 7.976810354988704 4.705148826971099 0.8076342046041477 0 0 1
16 1 6.882310365625781 7.472947592740893 0.8076342046041475 0 0 1
17 1 8.797685347010905 6.550348004150956 2.8879041255542175 0 0 0

Velocities

28 0 0 0
29 0 0 0
31 0 0 0
19 0 0 0
25 0 0 0
30 0 0 0
33 0 0 0
15 0 0 0
23 0 0 0
24 0 0 0
32 0 0 0
4 0 0 0
26 0 0 0
27 0 0 0
34 0 0 0
1 0 0 0
10 0 0 0
11 0 0 0
12 0 0 0
13 0 0 0
14 0 0 0
2 0 0 0
3 0 0 0
5 0 0 0
7 0 0 0
8 0 0 0
18 0 0 0
20 0 0 0
21 0 0 0
22 0 0 0
6 0 0 0
9 0 0 0
16 0 0 0
17 0 0 0
