LAMMPS data file via write_data, version 29 Sep 2021, timestep = 169

44 atoms
2 atom types

0 9.30324990958494 xlo xhi
-10.436766441121808 10.436766441121808 ylo yhi
0 4.16053984190014 zlo zhi

Masses

1 107.8682
2 107.8682

Atoms # atomic

27 2 1.2409255003032793 -8.539172542735825 1.4561889446650496 0 0 0
29 2 3.088023791671923 -8.539172542736141 3.5364588656151197 0 0 -1
31 2 2.058208550651863 -5.9934087223505434 1.4561889446650496 0 0 0
23 2 4.756165426726102 -10.034962487834022 1.4561889446650493 0 0 0
30 2 4.756165426726002 -7.043382597638057 1.45618894466505 0 0 0
32 2 3.880929745399328 -5.249816875708474 3.5364588656151197 0 0 -1
26 2 0.10454047193363358 -10.034962487834052 3.5364588656151197 0 0 -1
28 2 0.10454047193353055 -7.043382597638088 3.5364588656151197 0 0 -1
24 2 5.8925504550957495 -8.539172542735923 3.5364588656151197 0 0 -1
25 2 7.739648746464394 -8.539172542736235 1.4561889446650498 0 0 0
33 2 6.709833505444376 -5.993408722350397 3.5364588656151197 0 0 -1
36 2 8.532554700191772 -5.249816875708443 1.4561889446650496 -1 0 0
37 2 1.0804913525260635 -4.23171137927235 3.5364588656151192 0 0 -1
38 2 2.9548727065540312 -3.3207893221747744 1.4561889446650496 0 0 0
39 2 0.1776291057892134 -2.4098672650779207 1.4561889446650496 0 0 0
40 2 2.028815667708678 -1.3917617686417978 3.5364588656151197 0 0 -1
43 2 3.851536862455557 -0.6481699220005799 1.4561889446650498 0 0 0
34 2 5.732116307318589 -4.231711379272358 1.4561889446650496 0 0 0
35 2 7.606497661346421 -3.3207893221751075 3.5364588656151197 0 0 -1
41 2 4.829254060581602 -2.4098672650778123 3.5364588656151197 0 0 -1
42 2 6.680440622501001 -1.3917617686417498 1.45618894466505 0 0 0
44 2 8.503161817248303 -0.6481699219997684 3.5364588656151192 -1 0 -1
1 1 1.1535799863818137 0.40180395328779395 1.45618894466505 1 0 0
2 1 2.8217216214360143 1.8975938983856306 3.5364588656151192 1 0 0
5 1 2.0288156677085087 5.186949565413356 3.5364588656151197 1 0 0
7 1 3.8515368624563346 4.443357718770679 1.4561889446650496 1 0 0
14 1 1.1535799863819634 3.3933838434837558 1.4561889446650493 2 0 0
12 1 0.017194958012194193 1.897593898385782 3.5364588656151192 2 0 0
3 1 4.668819912804664 1.8975938983870435 1.45618894466505 1 0 0
4 1 5.805204941174493 0.40180395328758817 3.5364588656151192 1 0 0
8 1 5.805204941174226 3.393383843483552 3.5364588656151192 1 0 0
10 1 6.680440622501129 5.186949565413406 1.4561889446650496 1 0 0
11 1 7.473346576228485 1.8975938983855725 1.4561889446650493 1 0 0
13 1 8.50316181724853 4.443357718771489 3.5364588656151192 1 0 0
6 1 2.9548727065539087 7.115977118947036 1.4561889446650496 1 0 0
15 1 2.0582085506521213 9.78859651912182 1.4561889446650496 1 0 0
16 1 3.8809297453993636 9.045004672479989 3.5364588656151192 1 0 0
22 1 1.080491352526292 8.026899176043912 3.5364588656151192 2 0 0
21 1 0.17762910578936478 6.205055061849441 1.4561889446650496 2 0 0
9 1 4.829254060581917 6.205055061849543 3.5364588656151197 1 0 0
17 1 5.7321163073187105 8.026899176043896 1.4561889446650496 1 0 0
18 1 7.60649766134646 7.1159771189467005 3.5364588656151192 1 0 0
19 1 6.709833505444552 9.788596519121961 3.5364588656151192 1 0 0
20 1 8.532554700191858 9.045004672480019 1.4561889446650496 1 0 0

Velocities

27 0 0 0
29 0 0 0
31 0 0 0
23 0 0 0
30 0 0 0
32 0 0 0
26 0 0 0
28 0 0 0
24 0 0 0
25 0 0 0
33 0 0 0
36 0 0 0
37 0 0 0
38 0 0 0
39 0 0 0
40 0 0 0
43 0 0 0
34 0 0 0
35 0 0 0
41 0 0 0
42 0 0 0
44 0 0 0
1 0 0 0
2 0 0 0
5 0 0 0
7 0 0 0
14 0 0 0
12 0 0 0
3 0 0 0
4 0 0 0
8 0 0 0
10 0 0 0
11 0 0 0
13 0 0 0
6 0 0 0
15 0 0 0
16 0 0 0
22 0 0 0
21 0 0 0
9 0 0 0
17 0 0 0
18 0 0 0
19 0 0 0
20 0 0 0
