LAMMPS data file via write_data, version 29 Sep 2021, timestep = 293

40 atoms
2 atom types

0 9.30324990958494 xlo xhi
-9.602634809074244 9.602634809074244 ylo yhi
0 4.16053984190014 zlo zhi

Masses

1 107.8682
2 107.8682

Atoms # atomic

27 2 1.953918718991156 -8.287698472137617 1.8514402296455705 0 0 0
28 2 0.9639874442801769 -6.659346349480659 3.9317101505956416 0 0 -1
29 2 3.796502433742121 -7.706840029597563 3.931710150595641 0 0 -1
31 2 2.8973963927780564 -5.682189399933786 1.8514402296455699 0 0 0
32 2 4.733570854016002 -4.801369194140914 3.931710150595641 0 0 -1
24 2 6.605543673783624 -8.287698472137611 3.9317101505956407 0 0 -1
25 2 8.448127388534592 -7.706840029597566 1.8514402296455705 0 0 0
30 2 5.615612399072647 -6.65934634948066 1.8514402296455696 0 0 0
33 2 7.549021347570528 -5.682189399933786 3.9317101505956407 0 0 -1
36 2 0.08194589922353401 -4.801369194140915 1.85144022964557 0 0 0
37 2 1.9181206212384723 -3.92054819367599 3.931710150595641 0 0 -1
38 2 3.8515294929493322 -2.94339132545743 1.8514402296455703 0 0 0
39 2 1.0190146012458394 -1.895899300490864 1.8514402296455696 0 0 0
40 2 2.8615981958729826 -1.3150386699974426 3.9317101505956407 0 0 -1
1 1 4.63854987078459 -5.174079315695705e-05 1.8514402296455703 0 0 0
23 2 7.51322315066545 -1.3150386699974348 1.85144022964557 0 0 0
26 2 5.67063955603831 -1.895899300490863 3.9317101505956398 0 0 -1
34 2 6.569745576030945 -3.9205481936759816 1.8514402296455694 0 0 0
35 2 8.5031544477418 -2.9433913254574327 3.9317101505956407 0 0 -1
4 1 9.290174825577058 -5.1740793156395505e-05 3.9317101505956407 0 0 0
10 1 0.08195183445501403 4.801265614933328 1.8514402296455694 1 0 0
11 1 1.0190202547288931 1.8957947794766792 1.8514402296455696 1 0 0
12 1 2.8616039694798623 1.3149363369366365 3.93171015059564 1 0 0
13 1 1.9181262956929583 3.9204454091404584 3.9317101505956407 1 0 0
14 1 3.8515352441908344 2.943288459593583 1.8514402296455705 1 0 0
2 1 5.670645209521357 1.8957947794766803 3.93171015059564 0 0 0
3 1 7.513228924272336 1.314936336936618 1.8514402296455708 0 0 0
5 1 4.733576789247484 4.801265614933332 3.9317101505956407 0 0 0
7 1 6.569751250485424 3.9204454091404735 1.85144022964557 0 0 0
8 1 8.503160198983313 2.9432884595935884 3.9317101505956407 0 0 0
18 1 0.9639931955216828 6.659243483616813 3.9317101505956416 1 0 0
19 1 0.17697281768642825 9.602583068281088 3.931710150595641 1 0 0
20 1 1.9539244925980308 8.287596139076815 1.8514402296455699 1 0 0
21 1 2.8974020672325436 5.682086615398253 1.8514402296455703 1 0 0
22 1 3.796508087225179 7.70673550858338 3.9317101505956416 1 0 0
6 1 5.6156181503141545 6.659243483616809 1.8514402296455703 0 0 0
9 1 7.549027022025011 5.682086615398257 3.931710150595641 0 0 0
15 1 4.828597772478898 9.602583068281092 1.85144022964557 0 0 0
16 1 6.605549447390504 8.287596139076806 3.931710150595641 0 0 0
17 1 8.448133042017647 7.706735508583379 1.8514402296455705 0 0 0

Velocities

27 0 0 0
28 0 0 0
29 0 0 0
31 0 0 0
32 0 0 0
24 0 0 0
25 0 0 0
30 0 0 0
33 0 0 0
36 0 0 0
37 0 0 0
38 0 0 0
39 0 0 0
40 0 0 0
1 0 0 0
23 0 0 0
26 0 0 0
34 0 0 0
35 0 0 0
4 0 0 0
10 0 0 0
11 0 0 0
12 0 0 0
13 0 0 0
14 0 0 0
2 0 0 0
3 0 0 0
5 0 0 0
7 0 0 0
8 0 0 0
18 0 0 0
19 0 0 0
20 0 0 0
21 0 0 0
22 0 0 0
6 0 0 0
9 0 0 0
15 0 0 0
16 0 0 0
17 0 0 0
