LAMMPS data file via write_data, version 29 Sep 2021, timestep = 312

34 atoms
2 atom types

0 9.30324990958494 xlo xhi
-8.188158791159589 8.188158791159589 ylo yhi
0 4.16053984190014 zlo zhi

Masses

1 107.8682
2 107.8682

Atoms # atomic

28 2 0.8274517993662347 -5.6938731251140275 0.8076342046042483 0 0 0
29 2 3.647401473960333 -6.35059630612751 0.8076342046042773 0 0 0
31 2 2.641427782317209 -4.745485201576727 2.887904125554339 0 0 0
15 1 1.6688454672382125 -7.624689470410193 2.88790412555422 1 1 0
25 2 8.2990264287528 -6.35059630612751 2.887904125554347 0 0 0
30 2 5.479076754158707 -5.693873125114029 2.8879041255543174 0 0 0
33 2 7.293052737109681 -4.745485201576726 0.8076342046042696 0 0 0
19 1 6.3204704220306835 -7.624689470410193 0.8076342046041504 1 1 1
23 2 3.617429358490584 -2.1267841010780026 2.887904125554347 0 0 0
24 2 1.7857540782922101 -2.783507282091483 0.8076342046042483 0 0 0
32 2 4.623403050133706 -3.731895205628784 0.8076342046042697 0 0 0
1 1 0.9443604104202298 -0.8526909367953167 2.88790412555422 1 0 0
26 2 9.275028004926174 -3.7318952056287866 2.8879041255543396 -1 0 0
27 2 8.269054313283055 -2.126784101078001 0.8076342046042772 0 0 0
34 2 6.437379033084678 -2.783507282091482 2.887904125554318 0 0 0
4 1 5.595985365212699 -0.8526909367953158 0.8076342046041504 1 0 1
2 1 2.2015753659303434 0.9802776338906956 0.8076342046040942 1 0 1
3 1 4.042807653757297 0.4772184108409281 2.887904125554156 1 0 0
5 1 1.3066029388292166 3.949468587556833 0.8076342046040648 1 0 1
7 1 3.126258606144448 3.0733361063449873 2.8879041255541282 1 0 0
14 1 0.40483828129014104 2.095364849454283 2.8879041255541518 2 0 0
8 1 5.056463236082609 2.0953648494542865 0.807634204604082 1 0 1
10 1 5.958227893621687 3.949468587556833 2.887904125554134 1 0 0
11 1 6.853200320722816 0.9802776338906957 2.887904125554164 1 0 0
12 1 8.694432608549764 0.47721841084092986 0.8076342046040867 1 0 1
13 1 7.7778835609369175 3.0733361063449856 0.8076342046040594 1 0 1
6 1 2.2083675963682925 5.803572325659381 2.8879041255541518 1 0 0
9 1 4.138572226306451 4.825601068768679 0.8076342046040594 1 0 1
16 1 3.222023178693611 7.421718764272736 0.807634204604087 1 0 1
22 1 0.4116305117280875 6.918659541222976 0.8076342046040944 2 0 1
17 1 5.063255466520558 6.918659541222972 2.8879041255541638 1 0 0
18 1 6.859992551160765 5.803572325659383 0.8076342046040822 1 0 1
20 1 7.873648133486081 7.421718764272736 2.887904125554156 1 0 0
21 1 8.790197181098923 4.825601068768682 2.887904125554129 1 0 0

Velocities

28 0 0 0
29 0 0 0
31 0 0 0
15 0 0 0
25 0 0 0
30 0 0 0
33 0 0 0
19 0 0 0
23 0 0 0
24 0 0 0
32 0 0 0
1 0 0 0
26 0 0 0
27 0 0 0
34 0 0 0
4 0 0 0
2 0 0 0
3 0 0 0
5 0 0 0
7 0 0 0
14 0 0 0
8 0 0 0
10 0 0 0
11 0 0 0
12 0 0 0
13 0 0 0
6 0 0 0
9 0 0 0
16 0 0 0
22 0 0 0
17 0 0 0
18 0 0 0
20 0 0 0
21 0 0 0
