LAMMPS data file via write_data, version 29 Sep 2021, timestep = 264

34 atoms
2 atom types

0 9.30324990958494 xlo xhi
-8.188158739772762 8.188158739772762 ylo yhi
0 4.16053984190014 zlo zhi

Masses

1 107.8682
2 107.8682

Atoms # atomic

28 2 0.7985766688180375 -6.061632669681989 0.2692114014826115 0 0 0
31 2 2.6302519956002146 -5.404910260422676 2.3494813224453437 0 0 0
30 2 5.45020162361147 -6.061632669702249 2.3494813224326814 0 0 0
33 2 7.2818769503938565 -5.404910260423924 0.26921140149527334 0 0 0
24 2 0.768604998818199 -1.8378202669507522 2.349481322433807 0 0 0
25 2 3.588554475341211 -2.494544513515874 2.349481322443549 0 0 0
26 2 1.774578230739738 -3.4429318288975863 0.26921140148797523 0 0 0
27 2 9.095852925069963 -4.4565217352353175 2.349481322436417 -1 0 0
4 1 2.7471628383450386 -0.5637281854024825 0.2692114015316139 1 0 1
23 2 5.420229953605521 -1.837820266971172 0.2692114014837379 0 0 0
29 2 8.240179430132137 -2.4945445135144007 0.2692114014934785 0 0 0
32 2 4.444227970271241 -4.456521735230046 0.2692114014863481 0 0 0
34 2 6.426203185530432 -3.442931828886599 2.3494813224380446 0 0 0
1 1 7.398787793141064 -0.563728185402712 2.349481322481684 0 0 0
3 1 1.1939897208807142 0.7661815979783949 2.349481322514693 1 0 0
7 1 0.27744096763742143 3.3622989829907124 2.349481322516089 1 0 0
8 1 2.2076457186980383 2.384327956075296 0.2692114015666162 1 0 1
10 1 3.1094100154385136 4.238430872692948 2.349481322519844 1 0 0
11 1 4.004382425509201 1.269238583313416 2.3494813225128945 1 0 0
2 1 8.656007380303551 1.269238583316827 0.2692114015628249 0 0 1
5 1 7.761034970227595 4.238430872694573 0.2692114015697737 0 0 1
12 1 5.845614675676738 0.7661815979990576 0.2692114015646232 1 0 1
13 1 4.929065922431688 3.3622989829857546 0.26921140156601925 1 0 1
14 1 6.859270673486254 2.3843279560790704 2.349481322516687 1 0 0
9 1 1.2897536956436684 5.1145642525160175 0.2692114015749067 1 0 1
16 1 0.37320291307011305 7.710681728419719 0.2692114015624198 1 0 1
17 1 2.214435535452157 7.207620286875472 2.349481322510585 1 0 0
18 1 4.011173677993283 6.092534890990794 0.2692114015680148 1 0 1
19 1 3.471646537976622 -7.335726825973978 0.26921140153348083 1 1 1
6 1 8.662798632784138 6.092534890991502 2.3494813225180855 0 0 0
15 1 8.123271492768861 -7.335726825971987 2.3494813224835505 0 1 0
20 1 5.024827867858963 7.710681728434031 2.3494813225124895 1 0 0
21 1 5.941378650439156 5.1145642525125545 2.3494813225249773 1 0 0
22 1 6.866060490251259 7.207620286876858 0.2692114015605146 1 0 1

Velocities

28 0 0 0
31 0 0 0
30 0 0 0
33 0 0 0
24 0 0 0
25 0 0 0
26 0 0 0
27 0 0 0
4 0 0 0
23 0 0 0
29 0 0 0
32 0 0 0
34 0 0 0
1 0 0 0
3 0 0 0
7 0 0 0
8 0 0 0
10 0 0 0
11 0 0 0
2 0 0 0
5 0 0 0
12 0 0 0
13 0 0 0
14 0 0 0
9 0 0 0
16 0 0 0
17 0 0 0
18 0 0 0
19 0 0 0
6 0 0 0
15 0 0 0
20 0 0 0
21 0 0 0
22 0 0 0
