LAMMPS data file via write_data, version 29 Sep 2021, timestep = 582

44 atoms
2 atom types

0 9.30324990958494 xlo xhi
-10.539298092397175 10.539298092397175 ylo yhi
0 4.16053984190014 zlo zhi

Masses

1 107.8682
2 107.8682

Atoms # atomic

27 2 1.5654208085860868 -8.746012259904056 2.2882982789940103 0 0 0
28 2 0.5904575530822614 -7.098366379872185 0.2080283583801303 0 0 0
29 2 3.413175515236676 -8.171020172931202 0.20802835513448764 0 0 0
31 2 2.5040385684041686 -6.146055337674196 2.2882982792773334 0 0 0
23 2 4.4473065115215755 -10.060242094954562 2.288298269743949 0 0 0
36 2 9.002053875117628 -5.286268270115231 2.288298279312156 -1 0 0
26 2 9.09893145753223 -10.060242092462445 0.20802835119576615 -1 0 0
24 2 6.217045768656238 -8.746012271845526 0.20802835538699216 0 0 0
25 2 8.064800471205146 -8.171020157519237 2.2882982767434195 0 0 0
30 2 5.242082504692833 -7.098366393409737 2.2882982769342726 0 0 0
33 2 7.1556635183987325 -6.146055346142276 0.2080283567116817 0 0 0
32 2 4.350428918993309 -5.286268276143009 0.2080283568505983 0 0 0
37 2 1.5593163726374812 -4.294917812827273 0.20802835882955698 0 0 0
38 2 3.405706725161756 -3.4351307487024214 2.2882982784600854 0 0 0
39 2 0.6676627910634971 -2.4828197092581203 2.2882982790728126 0 0 0
40 2 2.4965697865358263 -1.4101659122263668 0.20802835481155013 0 0 0
44 2 8.995949445774995 -0.8351738360981672 0.2080283572953383 -1 0 0
34 2 6.210941323322124 -4.294917827328288 2.2882982781980212 0 0 0
35 2 8.057331677169078 -3.4351307561758597 0.20802835740620965 0 0 0
41 2 5.319287742438945 -2.482819718285895 0.20802835555583926 0 0 0
42 2 7.148194741806483 -1.4101659342332387 2.2882982770800284 0 0 0
43 2 4.34432450193548 -0.83517383643968 2.288298276152633 0 0 0
1 1 1.4624387729415733 0.47905599762376355 2.288298271077793 1 0 0
2 1 2.4965697226092614 2.3682779231862034 0.20802834411751722 1 0 1
3 1 4.3443244192158685 1.7932858072316473 2.288298264766607 1 0 0
5 1 1.5593163592589374 5.253029813318454 0.20802834220708946 1 0 1
7 1 3.4057066985443485 4.393242741453329 2.2882982639205447 1 0 0
14 1 0.6676627446154287 3.440931690127395 2.2882982634508107 2 0 0
4 1 6.114063739425431 0.47905599143095634 0.20802834942458015 1 0 1
8 1 5.319287695426857 3.4409316902279494 0.20802834277494026 1 0 1
10 1 6.2109413116467085 5.25302981401369 2.2882982633422477 1 0 0
11 1 7.148194677590996 2.36827793049155 2.2882982647236343 1 0 0
12 1 8.995949373610724 1.7932858053673921 0.2080283423034329 1 0 1
13 1 8.057331657572359 4.393242739767851 0.20802834180075427 1 0 1
6 1 2.504038579001471 7.104167348228949 2.288298263773474 1 0 0
9 1 4.350428926176276 6.244380268659038 0.20802834272516432 1 0 1
15 1 1.565420843771678 9.704124279429854 2.2882982633679996 1 0 0
16 1 3.4131755457561 9.129132159295905 0.20802834270272094 1 0 1
17 1 5.242082533796698 8.056478385262619 2.2882982642498786 1 0 0
22 1 0.5904575805224003 8.056478391923726 0.2080283421931263 2 0 1
18 1 7.155663537439318 7.104167338973016 0.20802834213273091 1 0 1
19 1 6.217045804656868 9.704124264928733 0.2080283437117566 1 0 1
20 1 8.064800501849314 9.129132149037257 2.2882982666407736 1 0 0
21 1 9.00205388274027 6.244380267437939 2.2882982634425395 1 0 0

Velocities

27 0 0 0
28 0 0 0
29 0 0 0
31 0 0 0
23 0 0 0
36 0 0 0
26 0 0 0
24 0 0 0
25 0 0 0
30 0 0 0
33 0 0 0
32 0 0 0
37 0 0 0
38 0 0 0
39 0 0 0
40 0 0 0
44 0 0 0
34 0 0 0
35 0 0 0
41 0 0 0
42 0 0 0
43 0 0 0
1 0 0 0
2 0 0 0
3 0 0 0
5 0 0 0
7 0 0 0
14 0 0 0
4 0 0 0
8 0 0 0
10 0 0 0
11 0 0 0
12 0 0 0
13 0 0 0
6 0 0 0
9 0 0 0
15 0 0 0
16 0 0 0
17 0 0 0
22 0 0 0
18 0 0 0
19 0 0 0
20 0 0 0
21 0 0 0
