LAMMPS data file via write_data, version 29 Sep 2021, timestep = 199

44 atoms
2 atom types

0 9.30324990958494 xlo xhi
-10.436766430825505 10.436766430825505 ylo yhi
0 4.16053984190014 zlo zhi

Masses

1 107.8682
2 107.8682

Atoms # atomic

27 2 1.9092106271825333 -8.83979958862491 2.7043508972350923 0 0 0
28 2 0.9314934350261694 -7.078102233131927 0.624080976285023 0 0 0
29 2 3.7319318295072694 -8.09620770971806 0.6240809762850228 0 0 0
31 2 2.805874796043544 -6.16718017977387 2.7043508972350954 0 0 0
23 2 4.607167486683274 -9.889773423358477 2.7043508972350927 0 0 0
36 2 0.028631212309828794 -5.256258107826719 2.7043508972350963 0 0 0
26 2 9.258792441514105 -9.88977342336904 0.6240809762850222 -1 0 0
24 2 6.5608355820107604 -8.839799588527478 0.6240809762850212 0 0 0
25 2 8.383556784278236 -8.09620770970532 2.704350897235093 0 0 0
30 2 5.583118389831751 -7.07810223315341 2.7043508972350936 0 0 0
33 2 7.4574997508135 -6.1671801798544195 0.6240809762850243 0 0 0
32 2 4.680256167088143 -5.256258107810661 0.6240809762850269 0 0 0
37 2 1.8798177701240788 -4.238152625124306 0.6240809762850276 0 0 0
38 2 3.7025389750481192 -3.4945607870134223 2.704350897235099 0 0 0
39 2 1.0045821313310221 -2.4445868907763924 2.704350897235099 0 0 0
40 2 2.6727237498348893 -0.9487968515229321 0.6240809762850287 0 0 0
44 2 9.171446998921265 -0.9487969729535328 0.6240809762850289 -1 0 0
34 2 6.531442724894663 -4.238152625116133 2.7043508972350976 0 0 0
35 2 8.354163929875233 -3.494560786912901 0.6240809762850285 0 0 0
41 2 5.656207086155907 -2.4445868907938806 0.6240809762850287 0 0 0
42 2 7.324348704627357 -0.948796851491863 2.7043508972350994 0 0 0
43 2 4.519822044128789 -0.9487969727932613 2.7043508972350985 0 0 0
1 1 1.0045820471073896 0.546993007434132 2.704350897235097 0 0 0
2 1 1.8798177042271398 2.340558721104374 0.6240809762850255 0 0 1
3 1 3.7025389065742815 1.5969668422372394 2.704350897235094 0 0 0
5 1 0.9314933665747894 5.180508323013057 0.6240809762850268 0 0 1
7 1 2.805874737648963 4.269586251051628 2.7043508972350954 0 0 0
14 1 0.02863114388930864 3.3586641976792952 2.704350897235095 1 0 0
4 1 5.656207001867436 0.5469930074166436 0.624080976285028 0 0 1
8 1 4.680256098695938 3.3586641976953597 0.6240809762850248 0 0 1
10 1 5.583118321354151 5.180508322991573 2.7043508972350963 0 0 0
11 1 6.531442659041495 2.340558721112542 2.7043508972350954 0 0 0
12 1 8.354163861332108 1.5969668423377612 0.6240809762850252 0 0 1
13 1 7.457499692463943 4.269586250971074 0.6240809762850257 0 0 1
6 1 1.9092105585802035 6.9422056437754485 2.704350897235097 0 0 0
9 1 3.7319317635266036 6.198613805704264 0.624080976285026 0 0 1
15 1 1.091927489563765 9.487969457978501 2.704350897235093 0 0 0
16 1 2.9390257838576734 9.487969579616436 0.6240809762850235 0 0 1
17 1 4.607167402263483 7.992179540081992 2.704350897235095 0 0 0
22 1 9.258792357017592 7.9921795400714295 0.6240809762850243 0 0 1
18 1 6.560835513336915 6.942205643872877 0.6240809762850263 0 0 1
19 1 5.743552444356231 9.487969457815224 0.6240809762850241 0 0 1
20 1 7.590650738650143 9.487969579675283 2.704350897235093 0 0 0
21 1 8.383556718340575 6.198613805717005 2.704350897235096 0 0 0

Velocities

27 0 0 0
28 0 0 0
29 0 0 0
31 0 0 0
23 0 0 0
36 0 0 0
26 0 0 0
24 0 0 0
25 0 0 0
30 0 0 0
33 0 0 0
32 0 0 0
37 0 0 0
38 0 0 0
39 0 0 0
40 0 0 0
44 0 0 0
34 0 0 0
35 0 0 0
41 0 0 0
42 0 0 0
43 0 0 0
1 0 0 0
2 0 0 0
3 0 0 0
5 0 0 0
7 0 0 0
14 0 0 0
4 0 0 0
8 0 0 0
10 0 0 0
11 0 0 0
12 0 0 0
13 0 0 0
6 0 0 0
9 0 0 0
15 0 0 0
16 0 0 0
17 0 0 0
22 0 0 0
18 0 0 0
19 0 0 0
20 0 0 0
21 0 0 0
