LAMMPS data file via write_data, version 29 Sep 2021, timestep = 621

36 atoms
2 atom types

0 9.30324990958494 xlo xhi
-8.632028394665278 8.632028394665278 ylo yhi
0 4.16053984190014 zlo zhi

Masses

1 107.8682
2 107.8682

Atoms # atomic

27 2 2.493424949137307 -7.842019434182724 1.5717594958308836 0 0 0
28 2 1.4975248337393223 -6.226045983151788 3.652029416780501 0 0 -1
31 2 3.4080790306732736 -5.217774291606088 1.571759495829479 0 0 0
36 2 0.5622772509517318 -4.469475654307247 1.5717594958295578 0 0 0
15 1 4.3254835584360505 -7.316326082884734 3.652029416780839 0 1 0
24 2 7.145049903929023 -7.842019434180446 3.652029416780953 0 0 -1
30 2 6.149149788532815 -6.226045983148113 1.571759495830432 0 0 0
33 2 8.059703985465887 -5.217774291603232 3.65202941677955 0 0 -1
32 2 5.213902205744347 -4.469475654305315 3.6520294167796283 0 0 -1
19 1 8.977108513228599 -7.316326082887692 1.5717594958307697 0 1 1
25 2 1.4769313325041293 -1.8452305117409051 1.5717594958280203 0 0 0
26 2 4.296497677995088 -2.3709238630383846 1.571759495827989 0 0 0
29 2 2.472831447887145 -3.4612039627644133 3.65202941677862 0 0 -1
1 1 3.2331365102566507 -0.5276107756306486 3.6520294167774288 0 0 0
23 2 6.12855628729595 -1.8452305117368082 3.6520294167780896 0 0 -1
34 2 7.124456402681105 -3.4612039627614246 1.5717594958285506 0 0 0
35 2 8.948122632787802 -2.3709238630355967 3.6520294167780585 0 0 -1
4 1 7.884761465049021 -0.5276107756276713 1.5717594958273586 0 0 1
5 1 3.4080790306959656 4.16255274034997 1.5717594958283496 0 0 1
12 1 1.4769313325189244 0.7900089604839128 1.5717594958270231 1 0 1
13 1 0.5622772509701213 3.4142541030531075 1.5717594958284364 1 0 1
14 1 2.472831447906114 2.405982411511914 3.652029416777571 1 0 0
2 1 4.296497678009628 1.3157023117769961 1.5717594958271532 0 0 1
11 1 8.948122632802153 1.3157023117798612 3.6520294167772254 0 0 0
3 1 6.128556287312214 0.7900089604859938 3.652029416777095 0 0 0
7 1 5.21390220576229 3.41425410305585 3.652029416778508 0 0 0
8 1 7.124456402697456 2.405982411515384 1.5717594958274967 0 0 1
10 1 8.059703985488257 4.162552740352361 3.652029416778422 0 0 0
18 1 8.977108513253594 6.261104531626675 1.5717594958299308 0 0 1
20 1 0.7372197714073727 8.104417619036218 3.652029416780636 1 0 0
21 1 1.4975248337691185 5.170824431896866 3.6520294167794245 1 0 0
22 1 2.4934249491589755 6.7867978829294975 1.5717594958299161 1 0 1
6 1 4.325483558461043 6.261104531629531 3.6520294167800023 0 0 0
9 1 6.149149788560313 5.170824431900154 1.5717594958293517 0 0 1
16 1 5.388844726199896 8.104417619039115 1.571759495830565 0 0 1
17 1 7.145049903952133 6.786797882932934 3.652029416779989 0 0 0

Velocities

27 0 0 0
28 0 0 0
31 0 0 0
36 0 0 0
15 0 0 0
24 0 0 0
30 0 0 0
33 0 0 0
32 0 0 0
19 0 0 0
25 0 0 0
26 0 0 0
29 0 0 0
1 0 0 0
23 0 0 0
34 0 0 0
35 0 0 0
4 0 0 0
5 0 0 0
12 0 0 0
13 0 0 0
14 0 0 0
2 0 0 0
11 0 0 0
3 0 0 0
7 0 0 0
8 0 0 0
10 0 0 0
18 0 0 0
20 0 0 0
21 0 0 0
22 0 0 0
6 0 0 0
9 0 0 0
16 0 0 0
17 0 0 0
