LAMMPS data file via write_data, version 29 Sep 2021, timestep = 335

40 atoms
2 atom types

0 9.30324990958494 xlo xhi
-9.602634692630057 9.602634692630057 ylo yhi
0 4.16053984190014 zlo zhi

Masses

1 107.8682
2 107.8682

Atoms # atomic

27 2 1.4258529580585138 -8.287698798680776 1.8514402313449063 0 0 0
28 2 0.43592175293438645 -6.659346398885795 3.9317101518032698 0 0 -1
29 2 3.268436628661579 -7.706839194612889 3.9317101521633444 0 0 -1
31 2 2.369330666374911 -5.6821895751080715 1.8514402300551842 0 0 0
15 1 4.300529076842851 9.602583089915985 1.8514402315259972 0 0 0
24 2 6.077477912847919 -8.287698798679095 3.9317101522949764 0 0 -1
25 2 7.92006158345329 -7.706839194621079 1.8514402312132747 0 0 0
30 2 5.087546707728704 -6.659346398881282 1.8514402308531999 0 0 0
33 2 7.020955621167434 -5.682189575108419 3.9317101510052543 0 0 -1
19 1 8.952154031639258 9.60258308991432 3.9317101524760676 0 0 0
37 2 1.3900550050257596 -3.920548325741882 3.931710150135792 0 0 -1
38 2 3.3234639213792057 -2.943391502026864 1.8514402283894258 0 0 0
39 2 0.4909490437337671 -1.8958986989386564 1.8514402280381554 0 0 0
40 2 2.3335327156664456 -1.3150391051016375 3.9317101488497395 0 0 -1
32 2 4.20550531369572 -4.801368950031851 3.9317101505702894 0 0 -1
36 2 8.857130268486484 -4.801368950037225 1.8514402296202195 -1 0 0
23 2 6.985157670461541 -1.3150391050988757 1.8514402278996693 0 0 0
26 2 5.142573998527199 -1.895898698931405 3.931710148988225 0 0 -1
34 2 6.041679959819517 -3.9205483257378266 1.8514402291857226 0 0 0
35 2 7.975088876170943 -2.9433915020275303 3.931710149339496 0 0 -1
1 1 4.110481529646326 -5.160271530968739e-05 1.8514402277651532 0 0 0
11 1 0.49094902301043497 1.8957954980754375 1.8514402280779017 1 0 0
12 1 2.3335326936192384 1.3149358939566977 3.9317101488962414 1 0 0
13 1 1.3900549853088227 3.9204451175497943 3.931710150186165 1 0 0
14 1 3.323463898742207 2.943288293774005 1.8514402284379643 1 0 0
2 1 5.142573977803593 1.895795498068048 3.9317101490279716 0 0 0
3 1 6.985157648414442 1.314935893958607 1.8514402279461726 0 0 0
4 1 8.762106484442748 -5.160271409151277e-05 3.931710148715223 0 0 0
7 1 6.041679940101202 3.920445117549628 1.8514402292360963 0 0 0
8 1 7.975088853532951 2.943288293778103 3.931710149388034 0 0 0
5 1 4.205505292779081 4.801265742638422 3.9317101506209955 0 0 0
18 1 0.43592173029931314 6.659243190630534 3.931710151851775 1 0 0
20 1 1.4258529360138752 8.287595587533023 1.851440231391551 1 0 0
21 1 2.3693306466581574 5.68208636691433 1.8514402301052855 1 0 0
22 1 3.2684366079418363 7.706735993744724 3.931710152203034 1 0 0
10 1 8.857130247570012 4.801265742643142 1.8514402296709256 0 0 0
6 1 5.0875466850923265 6.659243190630245 1.851440230901706 0 0 0
9 1 7.02095560144943 5.682086366918072 3.9317101510553556 0 0 0
16 1 6.077477890804023 8.287595587535916 3.931710152341622 0 0 0
17 1 7.920061562733466 7.706735993751168 1.8514402312529648 0 0 0

Velocities

27 0 0 0
28 0 0 0
29 0 0 0
31 0 0 0
15 0 0 0
24 0 0 0
25 0 0 0
30 0 0 0
33 0 0 0
19 0 0 0
37 0 0 0
38 0 0 0
39 0 0 0
40 0 0 0
32 0 0 0
36 0 0 0
23 0 0 0
26 0 0 0
34 0 0 0
35 0 0 0
1 0 0 0
11 0 0 0
12 0 0 0
13 0 0 0
14 0 0 0
2 0 0 0
3 0 0 0
4 0 0 0
7 0 0 0
8 0 0 0
5 0 0 0
18 0 0 0
20 0 0 0
21 0 0 0
22 0 0 0
10 0 0 0
6 0 0 0
9 0 0 0
16 0 0 0
17 0 0 0
