LAMMPS data file via write_data, version 29 Sep 2021, timestep = 595

36 atoms
2 atom types

0 9.30324990958494 xlo xhi
-8.632028383349933 8.632028383349933 ylo yhi
0 4.16053984190014 zlo zhi

Masses

1 107.8682
2 107.8682

Atoms # atomic

27 2 1.997736959241301 -7.842019502818362 1.826014708386151 0 0 0
28 2 1.0018368746967274 -6.226046012071368 3.9062846293381894 0 0 -1
31 2 2.9123910604762786 -5.217774301324782 1.8260147083913252 0 0 0
32 2 4.718214232925732 -4.46947566746353 3.906284629341197 0 0 -1
19 1 3.829795553180531 -7.316325955768417 3.9062846293370006 1 1 0
24 2 6.649361913918703 -7.842019502738718 3.906284629336464 0 0 -1
30 2 5.653461829545863 -6.226046012126945 1.8260147083877805 0 0 0
33 2 7.5640160152334 -5.217774301359355 3.906284629341635 0 0 -1
36 2 0.06658927814859972 -4.469475667911516 1.8260147083908824 0 0 0
15 1 8.481420507961774 -7.316325956004005 1.8260147083867289 0 1 0
25 2 0.9812433311585927 -1.84523058417222 1.8260147083958504 0 0 0
26 2 3.800809663765176 -2.3709237219802457 1.8260147083957203 0 0 0
29 2 1.9771434792335032 -3.4612039896949205 3.9062846293445985 0 0 -1
4 1 2.7374480031195847 -0.527610752505456 3.906284629346378 1 0 0
23 2 5.6328682859673735 -1.845230584741118 3.90628462934617 0 0 -1
34 2 6.628768433891646 -3.4612039896526556 1.826014708394152 0 0 0
35 2 8.452434618449317 -2.3709237222024844 3.906284629346022 0 0 -1
1 1 7.389072958182983 -0.5276107526356288 1.8260147083963054 0 0 0
3 1 0.981242355119482 0.7900088858931438 1.8260147083955875 1 0 0
7 1 0.06658822116426172 3.4142540748462302 1.826014708391121 1 0 0
8 1 1.9771424270678857 2.4059823717871405 3.9062846293438893 1 0 0
10 1 2.9123899967295297 4.162552714532796 1.8260147083915128 1 0 0
11 1 3.8008087098337358 1.315702410989622 1.8260147083951672 1 0 0
2 1 8.452433664546135 1.3157024112573095 3.906284629345021 0 0 0
5 1 7.564014951647303 4.162552714764642 3.906284629341343 0 0 0
12 1 5.632867309978255 0.7900088865489142 3.9062846293454294 1 0 0
13 1 4.718213176145747 3.414254074561372 3.9062846293409446 1 0 0
14 1 6.628767381761321 2.4059823716176885 1.8260147083941671 1 0 0
9 1 1.001835779934803 5.1708243827951685 3.906284629338513 1 0 0
16 1 0.2415312698790714 8.104417631733584 3.9062846293362097 1 0 0
17 1 1.9977359118050875 6.786797793678931 1.8260147083873213 1 0 0
18 1 3.8297945389711914 6.261104656575001 3.9062846293369633 1 0 0
6 1 8.48141949374259 6.261104656869315 1.8260147083871086 0 0 0
20 1 4.893156224437516 8.104417631630978 1.8260147083861438 1 0 0
21 1 5.653460734815034 5.17082438278399 1.826014708388804 1 0 0
22 1 6.649360866492295 6.786797793688652 3.9062846293371254 1 0 0

Velocities

27 0 0 0
28 0 0 0
31 0 0 0
32 0 0 0
19 0 0 0
24 0 0 0
30 0 0 0
33 0 0 0
36 0 0 0
15 0 0 0
25 0 0 0
26 0 0 0
29 0 0 0
4 0 0 0
23 0 0 0
34 0 0 0
35 0 0 0
1 0 0 0
3 0 0 0
7 0 0 0
8 0 0 0
10 0 0 0
11 0 0 0
2 0 0 0
5 0 0 0
12 0 0 0
13 0 0 0
14 0 0 0
9 0 0 0
16 0 0 0
17 0 0 0
18 0 0 0
6 0 0 0
20 0 0 0
21 0 0 0
22 0 0 0
