LAMMPS data file via write_data, version 29 Sep 2021, timestep = 192

44 atoms
2 atom types

0 9.30324990958494 xlo xhi
-10.43676644114412 10.43676644114412 ylo yhi
0 4.16053984190014 zlo zhi

Masses

1 107.8682
2 107.8682

Atoms # atomic

27 2 1.5733379535561303 -9.487969491947995 2.496323905140087 0 0 0
28 2 0.5435227124899585 -6.942205671552608 0.41605398419001693 0 0 0
29 2 3.241479588583646 -7.9921795468507355 0.4160539841900173 0 0 0
31 2 2.366243907224892 -6.198613824918777 2.4963239051400876 0 0 0
23 2 4.377864616988374 -9.487969491949611 2.496323905140087 0 0 0
26 2 9.029489571780847 -9.487969491949512 0.4160539841900174 -1 0 0
24 2 6.2249629083485996 -9.487969491947794 0.4160539841900176 0 0 0
25 2 7.8931045433761735 -7.992179546850698 2.496323905140087 0 0 0
30 2 5.195147667282455 -6.942205671552578 2.4963239051400876 0 0 0
33 2 7.017868862017357 -6.198613824918737 0.41605398419001693 0 0 0
37 2 1.4401868683504802 -4.269586271377372 0.41605398419001716 0 0 0
38 2 3.314568222361669 -3.358664214280769 2.496323905140087 0 0 0
39 2 0.5141298294761714 -2.340558717835643 2.496323905140087 0 0 0
40 2 2.336851024211125 -1.5969668712024099 0.41605398419001693 0 0 0
32 2 4.217430469131888 -5.180508328473784 0.41605398419001716 0 0 0
43 2 4.290519102910084 -0.5469929959034505 2.496323905140087 0 0 0
36 2 8.869055423924358 -5.180508328473735 2.496323905140087 -1 0 0
34 2 6.091811823142946 -4.2695862713773876 2.4963239051400867 0 0 0
35 2 7.9661931771541505 -3.3586642142807235 0.4160539841900176 0 0 0
41 2 5.165754784268637 -2.3405587178356826 0.4160539841900178 0 0 0
42 2 6.988475979003588 -1.5969668712023817 2.496323905140087 0 0 0
44 2 8.94214405770261 -0.5469929959033901 0.41605398419001755 -1 0 0
1 1 3.154134074504241 0.9487969491945575 0.41605398419001777 0 0 0
2 1 4.290519102908957 2.4445868942933706 2.496323905140087 0 0 0
12 1 1.307035783144018 0.9487969491963855 2.496323905140087 1 0 0
13 1 0.5141298294752512 4.238152616225387 2.496323905140087 1 0 0
14 1 2.336851024210175 3.494560769591491 0.4160539841900174 1 0 0
3 1 5.958660737936488 0.9487969491961284 0.4160539841900173 0 0 0
4 1 7.805759029296713 0.9487969491945946 2.496323905140087 0 0 0
7 1 5.165754784267723 4.238152616225346 0.4160539841900168 0 0 0
8 1 6.9884759790026525 3.494560769591521 2.4963239051400876 0 0 0
11 1 8.94214405770137 2.444586894293433 0.4160539841900172 0 0 0
5 1 3.314568222360735 5.2562581126703405 2.4963239051400876 0 0 0
6 1 4.217430469130945 7.078102226863344 0.41605398419001766 0 0 0
15 1 3.241479588582552 9.889773445240685 0.41605398419001716 0 0 0
20 1 0.5435227124890409 8.839799569941718 0.4160539841900172 1 0 0
21 1 1.4401868683496684 6.167180169766754 0.4160539841900175 1 0 0
22 1 2.3662439072239825 8.096207723308439 2.496323905140087 1 0 0
10 1 7.96619317715319 5.256258112670387 0.4160539841900173 0 0 0
9 1 6.091811823142141 6.167180169766738 2.496323905140087 0 0 0
16 1 5.195147667281484 8.839799569941759 2.4963239051400876 0 0 0
17 1 7.017868862016457 8.096207723308474 0.4160539841900175 0 0 0
18 1 8.869055423923415 7.078102226863394 2.4963239051400876 0 0 0
19 1 7.893104543374966 9.889773445240724 2.4963239051400867 0 0 0

Velocities

27 0 0 0
28 0 0 0
29 0 0 0
31 0 0 0
23 0 0 0
26 0 0 0
24 0 0 0
25 0 0 0
30 0 0 0
33 0 0 0
37 0 0 0
38 0 0 0
39 0 0 0
40 0 0 0
32 0 0 0
43 0 0 0
36 0 0 0
34 0 0 0
35 0 0 0
41 0 0 0
42 0 0 0
44 0 0 0
1 0 0 0
2 0 0 0
12 0 0 0
13 0 0 0
14 0 0 0
3 0 0 0
4 0 0 0
7 0 0 0
8 0 0 0
11 0 0 0
5 0 0 0
6 0 0 0
15 0 0 0
20 0 0 0
21 0 0 0
22 0 0 0
10 0 0 0
9 0 0 0
16 0 0 0
17 0 0 0
18 0 0 0
19 0 0 0
