LAMMPS data file via write_data, version 29 Sep 2021, timestep = 16

38 atoms
2 atom types

0 9.30324990958494 xlo xhi
-8.922228645528978 8.922228645528978 ylo yhi
0 4.16053984190014 zlo zhi

Masses

1 107.8682
2 107.8682

Atoms # atomic

28 2 2.059300576028718 -7.560510693266805 0.24087335924485045 0 0 0
31 2 3.283412405370919 -5.682146769345278 2.321143280772232 0 0 0
25 2 0.34554401120455447 -6.621328731840575 2.3211432807385353 1 0 0
37 2 1.569655844784441 -4.7429648050553945 0.24087335970966098 0 0 0
15 1 3.7730571394144787 -8.499692658301969 2.3211432799608254 0 1 0
29 2 4.997168965997036 -6.621328731840591 0.2408733597884581 0 0 0
30 2 6.710925530821182 -7.560510693266792 2.3211432801949226 0 0 0
33 2 7.935037360163397 -5.6821467693452865 0.24087335982215577 0 0 0
34 2 6.221280799576909 -4.742964805055395 2.321143280659736 0 0 0
19 1 8.424682094206942 -8.49969265830196 0.24087335901075452 0 1 1
26 2 1.0800111196964237 -1.9254189158461312 0.24087335880294647 0 0 0
38 2 2.7937676785059367 -2.864600881605836 2.3211432797445193 0 0 0
24 2 4.0178795120604445 -0.9862369543996955 0.2408733589639212 0 0 0
32 2 4.507524240515211 -3.8037828421111235 0.24087335925803113 0 0 0
1 1 2.3041229497964766 -0.047054993117902705 2.321143280030388 0 0 0
27 2 8.66950446685291 -0.9862369543996983 2.3211432799139864 -1 0 0
36 2 9.159149195307675 -3.8037828421111297 2.321143280208103 -1 0 0
23 2 5.731636074488894 -1.925418915846135 2.321143279753013 0 0 0
35 2 7.445392633298406 -2.8646008816058273 0.24087335879445007 0 0 0
4 1 6.955747904588944 -0.04705499311790508 0.24087335908032426 0 0 1
2 1 3.5282347821132753 1.831308932786938 0.24087335951297614 0 0 1
12 1 0.5903663892242196 0.8921269711185172 0.24087335943630164 1 0 1
13 1 0.10072165656219105 3.7096728591888777 0.24087335962005665 1 0 1
14 1 1.814478220593611 2.770490895385777 2.321143280461615 1 0 0
3 1 5.241991344016691 0.8921269711185182 2.3211432803863623 0 0 0
7 1 4.752346611354659 3.7096728591888817 2.3211432805701175 0 0 0
8 1 6.466103175386081 2.770490895385788 0.24087335951155542 0 0 1
11 1 8.179859736905748 1.8313089327869359 2.321143280463038 0 0 0
5 1 3.038590044723238 4.648854820969865 0.24087335935094228 0 0 1
6 1 4.262701873074978 6.527218746530265 2.3211432800524525 0 0 0
20 1 0.8351887499163253 8.405582672459134 2.321143279813025 1 0 0
21 1 1.3248334806555946 5.5880367840614165 2.3211432803288394 1 0 0
22 1 2.5489453119204706 7.466400709542293 0.24087335883867592 1 0 1
10 1 7.690214999515704 4.648854820969878 2.3211432803010026 0 0 0
9 1 5.976458435448074 5.588036784061393 0.24087335937877913 0 0 1
16 1 5.486813704708776 8.405582672459158 0.24087335886295713 0 0 1
17 1 7.200570266712962 7.466400709542283 2.3211432797887404 0 0 0
18 1 8.914326827867447 6.527218746530259 0.24087335910239127 0 0 1

Velocities

28 0 0 0
31 0 0 0
25 0 0 0
37 0 0 0
15 0 0 0
29 0 0 0
30 0 0 0
33 0 0 0
34 0 0 0
19 0 0 0
26 0 0 0
38 0 0 0
24 0 0 0
32 0 0 0
1 0 0 0
27 0 0 0
36 0 0 0
23 0 0 0
35 0 0 0
4 0 0 0
2 0 0 0
12 0 0 0
13 0 0 0
14 0 0 0
3 0 0 0
7 0 0 0
8 0 0 0
11 0 0 0
5 0 0 0
6 0 0 0
20 0 0 0
21 0 0 0
22 0 0 0
10 0 0 0
9 0 0 0
16 0 0 0
17 0 0 0
18 0 0 0
