LAMMPS data file via write_data, version 29 Sep 2021, timestep = 96

36 atoms
2 atom types

0 9.30324990958494 xlo xhi
-8.632028304382835 8.632028304382835 ylo yhi
0 4.16053984190014 zlo zhi

Masses

1 107.8682
2 107.8682

Atoms # atomic

28 2 1.0141521922501715 -6.178095552674052 0.3929398739572358 0 0 0
29 2 3.8421112945891887 -7.268376006420077 0.3929398739572355 0 0 0
31 2 2.924705905376287 -5.169823322645371 2.4732097949073055 0 0 0
36 2 0.07890366672469246 -4.421525404696273 2.473209794907306 0 0 0
15 1 2.0100528382352523 -7.794068893413652 2.4732097949073055 0 1 0
25 2 8.493736249381659 -7.268376006420076 2.4732097949073055 0 0 0
30 2 5.665777147042643 -6.178095552674054 2.4732097949073055 0 0 0
33 2 7.576330860168758 -5.169823322645373 0.3929398739572363 0 0 0
32 2 4.730528621517163 -4.421525404696272 0.39293987395723573 0 0 0
19 1 6.661677793027723 -7.794068893413651 0.39293987395723573 0 1 1
24 2 0.9935567338657249 -1.7972798339279978 2.473209794907306 0 0 0
26 2 3.81312323230426 -2.32297272092157 2.473209794907306 0 0 0
27 2 1.9894573798508062 -3.4132531746675907 0.39293987395723606 0 0 0
1 1 2.749761823647445 -0.47966021147940396 0.3929398739572362 0 0 0
23 2 5.6451816886581945 -1.7972798339279967 0.3929398739572359 0 0 0
34 2 6.641082334643277 -3.413253174667589 2.473209794907306 0 0 0
35 2 8.464748187096728 -2.322972720921569 0.39293987395723606 0 0 0
4 1 7.4013867784399165 -0.4796602114794038 2.473209794907306 0 0 0
2 1 3.81312323230426 1.363652297962762 2.473209794907306 0 0 0
5 1 2.9247059053762867 4.210502899686561 2.473209794907306 0 0 0
12 1 0.9935567338657244 0.8379594109691886 2.473209794907306 1 0 0
13 1 0.0789036667246913 3.462204981737464 2.473209794907306 1 0 0
14 1 1.989457379850806 2.4539327517087837 0.39293987395723634 1 0 0
3 1 5.6451816886581945 0.8379594109691867 0.39293987395723623 0 0 0
7 1 4.730528621517163 3.462204981737465 0.3929398739572362 0 0 0
8 1 6.641082334643277 2.4539327517087814 2.473209794907306 0 0 0
10 1 7.576330860168757 4.210502899686561 0.39293987395723606 0 0 0
11 1 8.46474818709673 1.36365229796276 0.39293987395723595 0 0 0
6 1 3.842111294589188 6.309055583461268 0.392939873957236 0 0 0
20 1 0.2538477484535323 8.15236809290343 0.39293987395723584 1 0 0
21 1 1.0141521922501717 5.218775129715243 0.39293987395723634 1 0 0
22 1 2.0100528382352523 6.834748470454841 2.473209794907306 1 0 0
9 1 5.665777147042642 5.2187751297152465 2.473209794907306 0 0 0
16 1 4.905472703246004 8.15236809290343 2.4732097949073055 0 0 0
17 1 6.661677793027723 6.834748470454841 0.3929398739572359 0 0 0
18 1 8.493736249381659 6.309055583461268 2.4732097949073055 0 0 0

Velocities

28 0 0 0
29 0 0 0
31 0 0 0
36 0 0 0
15 0 0 0
25 0 0 0
30 0 0 0
33 0 0 0
32 0 0 0
19 0 0 0
24 0 0 0
26 0 0 0
27 0 0 0
1 0 0 0
23 0 0 0
34 0 0 0
35 0 0 0
4 0 0 0
2 0 0 0
5 0 0 0
12 0 0 0
13 0 0 0
14 0 0 0
3 0 0 0
7 0 0 0
8 0 0 0
10 0 0 0
11 0 0 0
6 0 0 0
20 0 0 0
21 0 0 0
22 0 0 0
9 0 0 0
16 0 0 0
17 0 0 0
18 0 0 0
