LAMMPS data file via write_data, version 29 Sep 2021, timestep = 499

44 atoms
2 atom types

0 9.30324990958494 xlo xhi
-10.53929809512569 10.53929809512569 ylo yhi
0 4.16053984190014 zlo zhi

Masses

1 107.8682
2 107.8682

Atoms # atomic

27 2 1.4929261405296061 -9.129135226723065 2.288296913049728 0 0 0
28 2 0.5837891651756634 -7.104170334347704 0.20802699210228645 0 0 0
29 2 3.3218331059224435 -8.056481372570662 0.20802699210184275 0 0 0
31 2 2.430179493081277 -6.244383278042733 2.288296913051699 0 0 0
23 2 4.296796383487108 -9.704127230791968 2.288296913051959 0 0 0
26 2 8.948421348454769 -9.704127239571553 0.20802699210194747 -1 0 0
24 2 6.144551093387718 -9.129135247740457 0.20802699209964354 0 0 0
25 2 7.973458055908784 -8.056481392206484 2.2882969130518824 0 0 0
30 2 5.235414120856629 -7.104170328550293 2.288296913052361 0 0 0
33 2 7.081804441712304 -6.244383295669979 0.20802699210163803 0 0 0
36 2 8.94231682820157 -5.253032841341858 2.2882969130539936 -1 0 0
37 2 1.4854572792614982 -4.393245727613088 0.20802699210247802 0 0 0
38 2 3.3990382718494483 -3.440934687506731 2.288296913053721 0 0 0
39 2 0.5763203280634184 -2.3682810168171935 2.2882969130535815 0 0 0
40 2 2.424075023257611 -1.7932887723341986 0.20802699210243072 0 0 0
43 2 4.193814623574859 -0.47905900480394925 2.288296913049536 0 0 0
32 2 4.290691877592272 -5.2530328241775255 0.2080269921038947 0 0 0
34 2 6.137082232864756 -4.39324573214604 2.288296913052594 0 0 0
35 2 8.050663221256814 -3.440934706501401 0.2080269921036286 0 0 0
41 2 5.227945283592843 -2.3682809985964544 0.20802699210347902 0 0 0
42 2 7.075699985425376 -1.7932887815946477 2.288296913052533 0 0 0
44 2 8.845439576505036 -0.4790590197488679 0.20802699209943473 -1 0 0
3 1 0.5763209716506916 1.4101628433797404 2.2882969130424677 1 0 0
4 1 2.424075682013425 0.8351708744061576 0.20802699209559317 1 0 1
8 1 1.485457940541582 3.4351277716444706 0.2080269920946854 1 0 1
11 1 3.399038955908631 2.4828167236187957 2.288296913044751 1 0 0
13 1 4.2906925660508985 4.294914819979927 0.20802699209311412 1 0 1
1 1 7.075700627404203 0.8351708660303436 2.288296913045576 0 0 0
2 1 8.050663916372253 2.482816704149224 0.20802699209468425 0 0 1
7 1 8.942317526542396 4.294914802730858 2.2882969130431485 0 0 0
12 1 5.227945923621978 1.4101628648385067 0.208026992092421 1 0 1
14 1 6.137082896034377 3.435127765228073 2.2882969130447335 1 0 0
10 1 2.430180171985611 5.286265277894771 2.2882969130449187 1 0 0
17 1 1.4929267560895318 8.171017103522582 2.288296913048536 1 0 0
18 1 3.321833766106962 7.098363401904127 0.20802699209432687 1 0 1
19 1 2.527057427185191 10.060239091728576 0.20802699209761774 1 0 1
20 1 4.296797013455517 8.746009316854405 2.2882969130439745 1 0 0
21 1 5.235414767021239 6.146052362781782 2.2882969130440403 1 0 0
5 1 7.081805132465221 5.286265259867717 0.20802699209483494 0 0 1
9 1 0.5837898134960676 6.14605235920271 0.20802699209393305 1 0 1
6 1 7.973458726175666 7.098363381573098 2.288296913044491 0 0 0
15 1 7.1786823832577875 10.060239074955632 2.2882969130477266 0 0 0
16 1 8.94842195935124 8.746009308963837 0.2080269920938652 0 0 1
22 1 6.144551715049228 8.171017084120928 0.20802699209842807 1 0 1

Velocities

27 0 0 0
28 0 0 0
29 0 0 0
31 0 0 0
23 0 0 0
26 0 0 0
24 0 0 0
25 0 0 0
30 0 0 0
33 0 0 0
36 0 0 0
37 0 0 0
38 0 0 0
39 0 0 0
40 0 0 0
43 0 0 0
32 0 0 0
34 0 0 0
35 0 0 0
41 0 0 0
42 0 0 0
44 0 0 0
3 0 0 0
4 0 0 0
8 0 0 0
11 0 0 0
13 0 0 0
1 0 0 0
2 0 0 0
7 0 0 0
12 0 0 0
14 0 0 0
10 0 0 0
17 0 0 0
18 0 0 0
19 0 0 0
20 0 0 0
21 0 0 0
5 0 0 0
9 0 0 0
6 0 0 0
15 0 0 0
16 0 0 0
22 0 0 0
