LAMMPS data file via write_data, version 29 Sep 2021, timestep = 603

36 atoms
2 atom types

0 9.30324990958494 xlo xhi
-8.632028437190131 8.632028437190131 ylo yhi
0 4.16053984190014 zlo zhi

Masses

1 107.8682
2 107.8682

Atoms # atomic

27 2 2.584479157113178 -7.599916149563705 2.3345251335207307 0 0 0
28 2 0.8282740874029059 -6.282296387480671 0.2542552125706659 0 0 0
31 2 2.5844793916046687 -4.964676667632619 2.3345251335212294 0 0 0
36 2 9.068162939934604 -4.438983267505045 2.334525133521255 -1 0 0
19 1 4.416537766889949 -8.125609478861211 0.2542552125707775 1 1 1
24 2 7.236104112596368 -7.599916150010438 0.25425521257066147 0 0 0
30 2 5.47989904323404 -6.282296387223355 2.3345251335207355 0 0 0
33 2 7.236104346748356 -4.964676667319395 0.25425521257116057 0 0 0
32 2 4.416537985194465 -4.438983268477375 0.25425521257118666 0 0 0
15 1 9.068162721726642 -8.125609480885462 2.334525133520847 0 1 0
25 2 0.6533316656830912 -1.5921328805190753 2.334525133523129 0 0 0
26 2 3.4991334512259487 -2.340431499956372 2.334525133523215 0 0 0
29 2 1.5885792704893553 -3.3487032022408316 0.2542552125718514 0 0 0
4 1 2.5638858494227494 -0.5838611766698155 0.2542552125743458 1 0 1
23 2 5.304956620447653 -1.5921328806571495 0.2542552125730582 0 0 0
34 2 6.240204225243999 -3.3487032023036023 2.334525133521921 0 0 0
35 2 8.150758406069796 -2.340431499671396 0.2542552125731446 0 0 0
1 1 7.215510804198808 -0.5838611764634251 2.334525133524418 0 0 0
3 1 1.567985727819742 1.0321122646907015 2.334525133525102 1 0 0
7 1 1.5679854924348144 3.6673517471487895 2.3345251335254043 1 0 0
8 1 3.3241908048559283 2.3497320347557604 0.25425521257543027 1 0 1
10 1 4.387551847306061 4.1930451681956225 2.3345251335253017 1 0 0
11 1 4.387552068201181 0.5064189585953918 2.3345251335250485 1 0 0
2 1 9.03917702290153 0.506418959503476 0.2542552125749785 0 0 1
5 1 9.039176802091372 4.193045166887177 0.2542552125752314 0 0 1
12 1 6.219610682271765 1.0321122645890282 0.25425521257503053 1 0 1
13 1 6.219610446706288 3.6673517479644304 0.2542552125753339 1 0 1
14 1 7.975815758773833 2.349732034818798 2.3345251335255 1 0 0
6 1 0.6533314071486795 6.291596913918372 2.3345251335229666 1 0 0
9 1 2.563885595863896 5.283325224064333 0.25425521257450956 1 0 1
16 1 1.588579014598051 8.048167264065967 0.2542552125714634 1 0 1
17 1 3.4991331980083973 7.039895564847992 2.3345251335231216 1 0 0
18 1 5.3049563617493085 6.291596914817889 0.25425521257289646 1 0 1
20 1 6.2402039691521445 8.048167264532943 2.3345251335215327 1 0 0
21 1 7.215510550549883 5.283325224152135 2.3345251335245805 1 0 0
22 1 8.150758152966816 7.039895564294539 0.25425521257305056 1 0 1

Velocities

27 0 0 0
28 0 0 0
31 0 0 0
36 0 0 0
19 0 0 0
24 0 0 0
30 0 0 0
33 0 0 0
32 0 0 0
15 0 0 0
25 0 0 0
26 0 0 0
29 0 0 0
4 0 0 0
23 0 0 0
34 0 0 0
35 0 0 0
1 0 0 0
3 0 0 0
7 0 0 0
8 0 0 0
10 0 0 0
11 0 0 0
2 0 0 0
5 0 0 0
12 0 0 0
13 0 0 0
14 0 0 0
6 0 0 0
9 0 0 0
16 0 0 0
17 0 0 0
18 0 0 0
20 0 0 0
21 0 0 0
22 0 0 0
