LAMMPS data file via write_data, version 29 Sep 2021, timestep = 223

76 atoms
2 atom types

0 9.30324990958494 xlo xhi
-17.971674537810024 17.971674537810024 ylo yhi
0 4.16053984190014 zlo zhi

Masses

1 107.8682
2 107.8682

Atoms # atomic

48 2 1.0080542888281727 -15.277929698810363 7.280721752490744e-16 0 0 0
49 2 3.889673610243538 -16.592002610290873 4.134096598177578e-16 0 0 0
51 2 2.8524315544860457 -14.706228710936191 2.0802699209500704 0 0 0
56 2 0.026982276074542396 -13.639249033792469 2.080269920950071 0 0 0
35 1 1.0090425859844143 -17.90754952378718 6.142346135849172e-16 0 1 0
45 2 8.541298565036005 -16.59200261029087 2.0802699209500704 0 0 0
50 2 5.659679243620646 -15.277929698810366 2.0802699209500704 0 0 0
53 2 7.5040565092785165 -14.70622871093619 6.290789702703076e-16 0 0 0
52 2 4.678607230867012 -13.639249033792469 5.186105324566189e-16 0 0 0
39 1 5.660667540776887 -17.907549523787182 2.0802699209500704 0 1 0
57 2 1.9451827615347625 -12.673616695592017 6.769333055583673e-16 0 0 0
58 2 3.782524856071786 -11.8229292541441 2.08026992095007 0 0 0
59 2 0.9910829895361166 -10.85426516462142 2.08026992095007 0 0 0
60 2 2.856407639394865 -9.931765709295977 2.6092231470677255e-16 0 0 0
66 2 0.07010733446067469 -9.009266253970916 4.788877512186428e-16 0 0 0
54 2 6.5968077163272305 -12.673616695592017 2.080269920950071 0 0 0
55 2 8.434149810864255 -11.8229292541441 8.881784197001252e-16 0 0 0
61 2 5.642707944328587 -10.85426516462142 4.05054761537183e-16 0 0 0
62 2 7.508032594187335 -9.931765709295977 2.0802699209500704 0 0 0
63 2 4.721732289253146 -9.009266253970916 2.0802699209500704 0 0 0
67 2 1.9302904227177942 -8.040602164449561 2.08026992095007 0 0 0
68 2 1.0342080479238642 -6.22428238479869 0 0 0 0
69 2 3.76763251725675 -7.189914722998795 7.279958516461151e-17 0 0 0
71 2 2.8603837243067654 -5.157302707664379 2.08026992095007 0 0 0
72 2 4.704760989964126 -4.585601719777442 2.7992994694998395e-16 0 0 0
64 2 6.581915377510265 -8.040602164449561 0 0 0 0
65 2 8.419257472049221 -7.189914722998795 2.0802699209500704 0 0 0
70 2 5.685833002716337 -6.22428238479869 2.0802699209500704 0 0 0
73 2 7.5120086790992335 -5.157302707664377 5.7157058071044895e-16 0 0 0
76 2 0.05313603517165788 -4.585601719777441 2.0802699209500704 0 0 0
46 2 2.8601954186569 -1.3852338298465252 2.080269920950071 0 0 0
47 2 1.82314166858435 -3.2715288083033736 5.166788448748235e-16 0 0 0
43 2 4.703772692879359 -1.9559818948006034 5.497766933045905e-16 0 0 0
1 1 1.0349921462563347 -0.32024355416163097 6.388330628511323e-16 0 0 0
44 2 0.052147738086889106 -1.9559818948006034 2.080269920950071 0 0 0
74 2 6.474766623376819 -3.271528808303372 2.0802699209500704 0 0 0
75 2 7.511820373449371 -1.3852338298465217 5.892614747346916e-16 0 0 0
4 1 5.686617101048806 -0.32024355416163425 2.080269920950071 0 0 0
2 1 1.9314557440756923 1.4982816818496791 2.0802699209500704 0 0 0
3 1 3.766707026461497 0.6492246066626867 5.306123999761595e-16 0 0 0
5 1 0.9970149096828642 4.3116656591314975 2.080269920950071 0 0 0
7 1 2.851323629641553 3.3978690218727174 3.4590847236404107e-16 0 0 0
14 1 0.07146952061704769 2.459020777572184 4.3315666617230823e-16 1 0 0
8 1 4.723094475409517 2.459020777572184 2.0802699209500704 0 0 0
10 1 5.648639864475333 4.311665659131508 4.252505066990841e-16 0 0 0
11 1 6.583080698868163 1.4982816818496791 5.884985162127397e-16 0 0 0
12 1 8.418331981253965 0.6492246066626902 2.080269920950071 0 0 0
13 1 7.502948584434022 3.3978690218727174 2.0802699209500704 0 0 0
6 1 1.924900073828849 6.181587110292613 6.311949623320136e-16 0 0 0
9 1 3.7878033554131885 5.249653633204267 2.0802699209500704 0 0 0
15 1 0.9951503163540616 8.972163371701695 6.540937248837374e-16 0 0 0
16 1 2.856407639436279 8.039908828514193 2.0802699209500704 0 0 0
24 1 0.06604000772593896 7.107654285326562 2.080269920950071 1 0 0
19 1 4.717664962518408 7.107654285326562 1.5273879785869297e-16 0 0 0
20 1 6.57652502862132 6.181587110292613 2.0802699209500704 0 0 0
21 1 5.646775271146532 8.972163371701695 2.0802699209500704 0 0 0
22 1 7.508032594228749 8.039908828514193 4.97801606959545e-16 0 0 0
23 1 8.439428310205658 5.249653633204267 5.512436222323708e-16 0 0 0
17 1 1.925011923458508 10.830164023824075 2.0802699209500704 0 0 0
18 1 3.7879152050432796 9.898230546735709 7.390365992583564e-16 0 0 0
27 1 2.8614916492283946 12.681948635155592 3.620615973812114e-16 0 0 0
34 1 0.06417541439576953 11.76815199789633 7.130948313312535e-16 1 0 0
28 1 4.7158003691882415 11.768151997896338 2.0802699209500704 0 0 0
31 1 6.576636878250979 10.830164023824075 5.765595147999975e-16 0 0 0
32 1 8.439540159835747 9.898230546735702 2.080269920950071 0 0 0
33 1 7.5131166040208655 12.681948635155596 2.080269920950071 0 0 0
25 1 0.9897208034597311 13.620796879456172 2.0802699209500704 0 0 0
26 1 1.946108252404215 15.430593050366808 6.798498944769182e-16 0 0 0
29 1 3.781359534792522 14.581535975176791 2.0802699209500704 0 0 0
36 1 2.8526198602064965 17.46505148686592 2.0802699209500704 0 0 0
42 1 0.026198177816944272 16.400061211190632 2.080269920950071 1 0 0
30 1 5.6413457582522 13.620796879456172 4.613404938027893e-16 0 0 0
37 1 4.677823132609414 16.400061211190632 4.0681716147099503e-16 0 0 0
38 1 6.5977332071966845 15.4305930503668 2.0802699209500704 0 0 0
40 1 7.504244814998969 17.46505148686592 5.398921587844172e-16 0 0 0
41 1 8.432984489584992 14.581535975176791 6.999352067810329e-16 0 0 0

Velocities

48 0 0 0
49 0 0 0
51 0 0 0
56 0 0 0
35 0 0 0
45 0 0 0
50 0 0 0
53 0 0 0
52 0 0 0
39 0 0 0
57 0 0 0
58 0 0 0
59 0 0 0
60 0 0 0
66 0 0 0
54 0 0 0
55 0 0 0
61 0 0 0
62 0 0 0
63 0 0 0
67 0 0 0
68 0 0 0
69 0 0 0
71 0 0 0
72 0 0 0
64 0 0 0
65 0 0 0
70 0 0 0
73 0 0 0
76 0 0 0
46 0 0 0
47 0 0 0
43 0 0 0
1 0 0 0
44 0 0 0
74 0 0 0
75 0 0 0
4 0 0 0
2 0 0 0
3 0 0 0
5 0 0 0
7 0 0 0
14 0 0 0
8 0 0 0
10 0 0 0
11 0 0 0
12 0 0 0
13 0 0 0
6 0 0 0
9 0 0 0
15 0 0 0
16 0 0 0
24 0 0 0
19 0 0 0
20 0 0 0
21 0 0 0
22 0 0 0
23 0 0 0
17 0 0 0
18 0 0 0
27 0 0 0
34 0 0 0
28 0 0 0
31 0 0 0
32 0 0 0
33 0 0 0
25 0 0 0
26 0 0 0
29 0 0 0
36 0 0 0
42 0 0 0
30 0 0 0
37 0 0 0
38 0 0 0
40 0 0 0
41 0 0 0
