LAMMPS data file via write_data, version 29 Sep 2021, timestep = 700

44 atoms
2 atom types

0 9.30324990958494 xlo xhi
-10.539298090474736 10.539298090474736 ylo yhi
0 4.16053984190014 zlo zhi

Masses

1 107.8682
2 107.8682

Atoms # atomic

27 2 1.492916440946724 -9.12914112019149 1.87225602913002 0 0 0
28 2 0.583779487944235 -7.104176301683291 3.952525950078436 0 0 -1
29 2 3.321823432429638 -8.05648734422031 3.9525259500785253 0 0 -1
31 2 2.4301698398849583 -6.2443892303930655 1.8722560291261383 0 0 0
23 2 4.2967866919102455 -9.704133226445993 1.8722560291275452 0 0 0
26 2 8.948411646698634 -9.704133226428448 3.9525259500808647 -1 0 -1
24 2 6.144541395743178 -9.12914112018299 3.952525950080567 0 0 -1
25 2 7.973448387225863 -8.056487344204683 1.8722560291277812 0 0 0
30 2 5.2354044427305775 -7.104176301695685 1.8722560291271813 0 0 0
33 2 7.081794794685391 -6.244389230385571 3.9525259500774976 0 0 -1
36 2 8.942307192867776 -5.253038777798228 1.8722560291278436 -1 0 0
37 2 1.4854476352471149 -4.3932517064662 3.9525259500759446 0 0 -1
38 2 3.3990286455385483 -3.4409406639662112 1.8722560291272279 0 0 0
39 2 0.5763106822446246 -2.3682868880578876 1.8722560291304569 0 0 0
40 2 2.4240653860890413 -1.793294781679875 3.952525950075685 0 0 -1
43 2 4.193804659604002 -0.4790649588653722 1.8722560291393797 0 0 0
32 2 4.29068223806882 -5.253038777812953 3.9525259500764505 0 0 -1
34 2 6.137072590046099 -4.3932517064748895 1.8722560291271821 0 0 0
35 2 8.050653600341539 -3.4409406639514746 3.95252595007729 0 0 -1
41 2 5.227935637041103 -2.368286888107323 3.95252595008042 0 0 -1
42 2 7.075690340863939 -1.7932947816787985 1.872256029130044 0 0 0
44 2 8.8454296143685 -0.4790649588446688 3.952525950089689 -1 0 -1
3 1 0.5763106826271185 1.4101569703053791 1.8722560291497752 1 0 0
4 1 2.4240653864675203 0.8351648640314807 3.9525259501025864 1 0 0
8 1 1.485447635641459 3.4351217887842207 3.9525259501027974 1 0 0
11 1 3.399028645948751 2.4828107462616287 1.8722560291517254 1 0 0
13 1 4.290682238490584 4.294908860088547 3.9525259501030665 1 0 0
1 1 7.075690341257385 0.8351648640402001 1.8722560291488637 0 0 0
2 1 8.050653600730362 2.482810746284217 3.952525950101204 0 0 0
7 1 8.94230719327989 4.294908860108455 1.8722560291525436 0 0 0
12 1 5.22793563742363 1.410156970304636 3.952525950098849 1 0 0
14 1 6.137072590440885 3.4351217888025882 1.8722560291519936 1 0 0
10 1 2.430169840311216 5.286259312665226 1.872256029154448 1 0 0
17 1 1.4929164413471079 8.171011202390734 1.8722560291504227 1 0 0
18 1 3.3218234328447833 7.09835742651424 3.9525259501018306 1 0 0
19 1 2.5270474187914784 10.060233131610573 3.952525950090299 1 0 0
20 1 4.296786692300356 8.74600330879353 1.8722560291543138 1 0 0
21 1 5.235404443131055 6.146046384014678 1.8722560291544132 1 0 0
5 1 7.081794795097499 5.28625931269871 3.9525259501020376 0 0 0
9 1 0.5837794883430177 6.146046384015269 3.952525950102184 1 0 0
6 1 7.973448387629228 7.098357426541555 1.872256029153869 0 0 0
15 1 7.1786723735897775 10.060233131632488 1.8722560291409813 0 0 0
16 1 8.948411647104914 8.746003308806985 3.9525259500997887 0 0 0
22 1 6.144541396131283 8.17101120242608 3.9525259500994134 1 0 0

Velocities

27 0 0 0
28 0 0 0
29 0 0 0
31 0 0 0
23 0 0 0
26 0 0 0
24 0 0 0
25 0 0 0
30 0 0 0
33 0 0 0
36 0 0 0
37 0 0 0
38 0 0 0
39 0 0 0
40 0 0 0
43 0 0 0
32 0 0 0
34 0 0 0
35 0 0 0
41 0 0 0
42 0 0 0
44 0 0 0
3 0 0 0
4 0 0 0
8 0 0 0
11 0 0 0
13 0 0 0
1 0 0 0
2 0 0 0
7 0 0 0
12 0 0 0
14 0 0 0
10 0 0 0
17 0 0 0
18 0 0 0
19 0 0 0
20 0 0 0
21 0 0 0
5 0 0 0
9 0 0 0
6 0 0 0
15 0 0 0
16 0 0 0
22 0 0 0
