LAMMPS data file via write_data, version 29 Sep 2021, timestep = 330

40 atoms
2 atom types

0 9.30324990958494 xlo xhi
-9.60263462499737 9.60263462499737 ylo yhi
0 4.16053984190014 zlo zhi

Masses

1 107.8682
2 107.8682

Atoms # atomic

27 2 1.7986303380315105 -8.531865281585514 2.0802699209500726 0 0 0
28 2 0.916588931071062 -6.67388779359428 4.191382812786114e-15 0 0 0
29 2 3.7320392294713947 -7.554708445028205 5.428711472840566e-15 0 0 0
31 2 2.7527634863381096 -5.793067288163044 2.0802699209500726 0 0 0
24 2 6.450255292823974 -8.53186528158552 5.329070518200751e-15 0 0 0
25 2 8.383664184263866 -7.554708445028177 2.080269920950074 0 0 0
30 2 5.568213885863544 -6.673887793594274 2.0802699209500695 0 0 0
33 2 7.404388441130579 -5.7930672881630425 6.217248937900877e-15 0 0 0
37 2 1.8536571439128817 -3.768417636078258 1.7763568394002505e-15 0 0 0
38 2 3.6962407823902934 -3.187558040683724 2.0802699209500726 0 0 0
39 2 0.8215642145669789 -1.8725705044742023 2.0802699209500735 0 0 0
32 2 4.686172294994754 -4.815910348269113 3.552713678800501e-15 0 0 0
1 1 1.8536563348960502 0.023276707555402145 1.4592320461972608e-15 0 0 0
26 2 3.6962399867008644 -0.5575830892649083 2.0802699209500726 0 0 0
36 2 0.0345473402022725 -4.815910348269103 2.0802699209500704 0 0 0
34 2 6.505282098705369 -3.7684176360782677 2.080269920950074 0 0 0
35 2 8.347865737182772 -3.187558040683751 2.6645352591003757e-15 0 0 0
40 2 5.47318916935944 -1.8725705044742016 1.9906822475915665e-15 0 0 0
23 2 8.347864941493343 -0.5575830892648849 4.160539841900139 -1 0 -1
4 1 6.505281289688519 0.023276707555397513 2.0802699209500757 0 0 0
2 1 2.7527623016136844 2.047926179969192 2.0802699209500717 0 0 0
7 1 3.73203804474696 3.809567336834345 2.6645352591003757e-15 0 0 0
12 1 0.03454623826110265 1.0707693434118564 2.0802699209500726 1 0 0
14 1 0.9165876452215409 2.9287468314031018 6.217248937900877e-15 1 0 0
3 1 4.686171193053586 1.0707693434118475 4.130781121048244e-15 0 0 0
8 1 5.5682126000140215 2.9287468314030907 2.080269920950071 0 0 0
11 1 7.40438725640615 2.047926179969187 4.440892098500626e-15 0 0 0
13 1 8.383662999539442 3.8095673368343133 2.0802699209500677 0 0 0
5 1 1.7986292360903269 4.786724276728264 2.0802699209500735 0 0 0
6 1 2.7885607486947843 6.41507658431362 1.7763568394002505e-15 0 0 0
15 1 2.788561544384224 9.04505153573249 5.0124205445084665e-15 0 0 0
16 1 4.631145196189032 -9.579357917441975 2.0802699209500704 0 1 0
21 1 9.282769341964668 5.83421698891911 1.7763568394002505e-15 0 0 0
22 1 1.0116123617256305 7.730064120523163 2.080269920950073 1 0 0
10 1 6.450254190882796 4.786724276728256 3.552713678800501e-15 0 0 0
9 1 4.631144387172177 5.834216988919103 2.0802699209500726 0 0 0
17 1 5.663237316518112 7.730064120523174 3.552713678800501e-15 0 0 0
18 1 7.440185703487264 6.415076584313636 2.080269920950072 0 0 0
19 1 7.440186499176677 9.045051535732465 2.0802699209500743 0 0 0
20 1 9.2827701509815 -9.579357917441973 2.6645352591003757e-15 0 1 0

Velocities

27 0 0 0
28 0 0 0
29 0 0 0
31 0 0 0
24 0 0 0
25 0 0 0
30 0 0 0
33 0 0 0
37 0 0 0
38 0 0 0
39 0 0 0
32 0 0 0
1 0 0 0
26 0 0 0
36 0 0 0
34 0 0 0
35 0 0 0
40 0 0 0
23 0 0 0
4 0 0 0
2 0 0 0
7 0 0 0
12 0 0 0
14 0 0 0
3 0 0 0
8 0 0 0
11 0 0 0
13 0 0 0
5 0 0 0
6 0 0 0
15 0 0 0
16 0 0 0
21 0 0 0
22 0 0 0
10 0 0 0
9 0 0 0
17 0 0 0
18 0 0 0
19 0 0 0
20 0 0 0
