LAMMPS data file via write_data, version 29 Sep 2021, timestep = 174

38 atoms
2 atom types

0 9.30324990958494 xlo xhi
-9.133835053534355 9.133835053534355 ylo yhi
0 4.16053984190014 zlo zhi

Masses

1 107.8682
2 107.8682

Atoms # atomic

27 2 1.1775895272330204 -8.137709806485665 2.0802699209500704 0 0 0
28 2 0.32671956777958405 -6.228455495079864 0 0 0 0
29 2 3.123051103258529 -6.87723979401487 4.160539841900139 0 0 -1
31 2 2.1730660591530384 -5.182304756436079 2.0802699209500695 0 0 0
24 2 5.829214482025491 -8.137709806485665 0 0 0 0
25 2 7.774676058050999 -6.877239794014877 2.08026992095007 0 0 0
30 2 4.978344522572054 -6.228455495079864 2.0802699209500704 0 0 0
33 2 6.8246910139455075 -5.182304756436078 0 0 0 0
26 2 0.3757681413202897 -1.679835135361269 2.08026992095007 0 0 0
37 2 1.3257531854258442 -3.374770172939737 0 0 0 0
38 2 3.1720996767992147 -2.3286194342957285 2.0802699209500695 0 0 0
32 2 4.075222099685616 -4.278537464687979 2.0129598242415908e-16 0 0 0
1 1 2.32122971734474 -0.41936512288961014 4.160539841900139 1 0 -1
36 2 8.726847054478089 -4.2785374646879735 2.08026992095007 -1 0 0
23 2 5.027393096112764 -1.6798351353612604 2.9514330880157286e-16 0 0 0
34 2 5.977378140218317 -3.3747701729397357 2.0802699209500686 0 0 0
35 2 7.823724631591686 -2.3286194342957303 0 0 0 0
4 1 6.972854672137208 -0.4193651228896108 2.0802699209500704 1 0 0
2 1 3.571691116924435 1.4104367542565273 2.0802699209500712 1 0 0
5 1 2.6752282125237232 4.347883770431903 2.08026992095007 1 0 0
7 1 4.507546310456745 3.507675570513996 0 1 0 0
12 1 0.7673342943421071 0.9211659989193588 2.0802699209500717 2 0 0
14 1 1.7639878160770934 2.5524447512183146 4.160539841900139 2 0 -1
3 1 5.418959249134578 0.9211659989193488 4.160539841900139 1 0 -1
8 1 6.415612770869566 2.552444751218314 2.0802699209500695 1 0 0
10 1 7.326853167316195 4.347883770431904 1.7763568394002505e-15 1 0 0
11 1 8.223316071716907 1.4104367542565222 4.160539841900139 1 0 -1
13 1 9.159171265249219 3.507675570513998 2.0802699209500686 1 0 0
6 1 3.642897888909962 6.202919607179119 0 1 0 0
15 1 2.7314849502327148 8.78942917877367 8.881784197001252e-16 1 0 0
16 1 4.578753082442787 8.300158423437948 2.0802699209500695 1 0 0
21 1 0.8235910320503484 5.362711407261545 1.7763568394002505e-15 2 0 0
22 1 1.7348314284971427 7.158150426475006 2.08026992095007 2 0 0
9 1 5.475215986842822 5.362711407261546 2.0802699209500695 1 0 0
17 1 6.3864563832896115 7.158150426475006 0 1 0 0
18 1 8.294522843702437 6.202919607179111 2.080269920950069 1 0 0
19 1 7.383109905025184 8.789429178773673 2.0802699209500704 1 0 0
20 1 9.230378037235262 8.300158423437948 0 1 0 0

Velocities

27 0 0 0
28 0 0 0
29 0 0 0
31 0 0 0
24 0 0 0
25 0 0 0
30 0 0 0
33 0 0 0
26 0 0 0
37 0 0 0
38 0 0 0
32 0 0 0
1 0 0 0
36 0 0 0
23 0 0 0
34 0 0 0
35 0 0 0
4 0 0 0
2 0 0 0
5 0 0 0
7 0 0 0
12 0 0 0
14 0 0 0
3 0 0 0
8 0 0 0
10 0 0 0
11 0 0 0
13 0 0 0
6 0 0 0
15 0 0 0
16 0 0 0
21 0 0 0
22 0 0 0
9 0 0 0
17 0 0 0
18 0 0 0
19 0 0 0
20 0 0 0
