LAMMPS data file via write_data, version 29 Sep 2021, timestep = 583

40 atoms
2 atom types

0 9.30324990958494 xlo xhi
-9.602634692392288 9.602634692392288 ylo yhi
0 4.16053984190014 zlo zhi

Masses

1 107.8682
2 107.8682

Atoms # atomic

26 2 0.5912135190881405 -9.295970278528321 0.457659382607948 0 0 0
28 2 1.5346912337710266 -6.690461057217283 0.4576593826079114 0 0 0
29 2 4.252907272549447 -7.667617879210598 0.45765938260799366 0 0 0
31 2 3.370865881933633 -5.809640432028853 2.5379293035579007 0 0 0
36 2 0.5554155753033776 -4.928819806840978 2.537929303557873 0 0 0
19 1 2.4337971919541754 -8.715110677830195 2.5379293035577395 1 1 0
23 2 5.242838473880279 -9.295970278528193 2.537929303557963 0 0 0
25 2 8.904532227342477 -7.667617879210472 2.5379293035580344 0 0 0
30 2 6.186316188563467 -6.690461057217358 2.5379293035580126 0 0 0
33 2 8.022490836726282 -5.809640432029028 0.4576593826079199 0 0 0
32 2 5.207040530096121 -4.928819806841326 0.4576593826078919 0 0 0
15 1 7.085422146746839 -8.715110677829726 0.4576593826077482 0 1 0
37 2 2.4888244913177093 -3.951662984848209 0.45765938260788996 0 0 0
38 2 4.307934571912959 -2.904170186226539 2.5379293035579304 0 0 0
39 2 1.4988932899870584 -2.323310585530968 2.5379293035579384 0 0 0
40 2 3.275842117265725 -1.0083230858324093 0.45765938260701117 0 0 0
24 2 7.927467072057973 -1.008323085832419 2.5379293035570285 0 0 0
27 2 6.150518244779263 -2.3233105855309737 0.45765938260787953 0 0 0
34 2 7.140449446110045 -3.951662984848222 2.537929303557852 0 0 0
35 2 8.959559526705428 -2.904170186226576 0.45765938260796624 0 0 0
3 1 8.959559526698351 0.8875240145628782 0.457659382606168 0 0 0
4 1 1.4988932899797986 0.30666441386426035 2.5379293035562465 1 0 0
8 1 0.5554155752965658 2.9121736351749394 2.537929303556256 1 0 0
10 1 1.5346912337643757 4.673814885551041 0.4576593826061178 1 0 0
11 1 2.4888244913102087 1.9350168131820669 0.4576593826061931 1 0 0
13 1 3.370865881926234 3.7929942603633893 2.537929303556187 1 0 0
1 1 6.1505182447726146 0.30666441386459525 0.457659382606213 0 0 0
2 1 7.140449446102877 1.9350168131824124 2.5379293035562323 0 0 0
5 1 6.186316188556451 4.673814885551092 2.53792930355622 0 0 0
7 1 8.02249083671889 3.792994260363566 0.45765938260610567 0 0 0
12 1 4.307934571905939 0.8875240145630915 2.537929303556189 1 0 0
14 1 5.207040530088981 2.912173635175239 0.45765938260614697 1 0 0
9 1 8.904532227335213 5.650971707543505 2.537929303556188 0 0 0
17 1 0.5912135190803735 7.279324106860843 0.4576593826061838 1 0 0
18 1 2.433797191947047 6.698464506165146 2.5379293035564388 1 0 0
20 1 3.4658896465944617 8.594311606559117 0.4576593826069932 1 0 0
6 1 7.085422146739677 6.698464506164914 0.45765938260641914 0 0 0
16 1 8.117514601387207 8.594311606559172 2.5379293035571555 0 0 0
21 1 4.252907272542504 5.6509717075440395 0.45765938260607175 1 0 0
22 1 5.2428384738731095 7.2793241068610035 2.5379293035562966 1 0 0

Velocities

26 0 0 0
28 0 0 0
29 0 0 0
31 0 0 0
36 0 0 0
19 0 0 0
23 0 0 0
25 0 0 0
30 0 0 0
33 0 0 0
32 0 0 0
15 0 0 0
37 0 0 0
38 0 0 0
39 0 0 0
40 0 0 0
24 0 0 0
27 0 0 0
34 0 0 0
35 0 0 0
3 0 0 0
4 0 0 0
8 0 0 0
10 0 0 0
11 0 0 0
13 0 0 0
1 0 0 0
2 0 0 0
5 0 0 0
7 0 0 0
12 0 0 0
14 0 0 0
9 0 0 0
17 0 0 0
18 0 0 0
20 0 0 0
6 0 0 0
16 0 0 0
21 0 0 0
22 0 0 0
