LAMMPS data file via write_data, version 29 Sep 2021, timestep = 425

40 atoms
2 atom types

0 9.30324990958494 xlo xhi
-9.602634692924783 9.602634692924783 ylo yhi
0 4.16053984190014 zlo zhi

Masses

1 107.8682
2 107.8682

Atoms # atomic

27 2 1.6216294373031173 -8.594414812943471 2.766758994863602 0 0 0
28 2 0.5895370090261027 -6.698567706037909 0.6864890739135348 0 0 0
29 2 3.3985782920857845 -7.27942731878143 0.6864890739135348 0 0 0
31 2 2.4086470906692985 -5.651074916511471 2.7667589948636007 0 0 0
24 2 6.273254392050092 -8.59441481294347 0.6864890739135333 0 0 0
25 2 8.050203246923246 -7.2794273182968565 2.766758994863603 0 0 0
30 2 5.241161963894506 -6.69856770605002 2.766758994863603 0 0 0
33 2 7.060272045541468 -5.651074916582575 0.686489073913533 0 0 0
37 2 1.5266057003955995 -3.793097466078944 0.6864890739135335 0 0 0
38 2 3.3627803475845344 -2.9122768439400386 2.766758994863603 0 0 0
39 2 0.644564309471563 -1.9351200223094702 2.7667589948636033 0 0 0
32 2 4.342056005407919 -4.673918094493767 0.6864890739135333 0 0 0
4 1 2.463674389716209 -0.8876272157658047 0.6864890739135333 1 0 1
26 2 4.3062580631209775 -0.3067676251587279 2.7667589948636033 0 0 0
36 2 8.993680960134997 -4.6739180946902135 2.766758994863603 -1 0 0
34 2 6.178230655169053 -3.7930974660729166 2.7667589948636038 0 0 0
35 2 8.014405302336531 -2.9122768440020304 0.6864890739135328 0 0 0
40 2 5.296189264224877 -1.9351200223062424 0.6864890739135331 0 0 0
23 2 8.957883017934673 -0.3067676249433772 0.6864890739135334 -1 0 0
1 1 7.115299344476164 -0.8876272157618724 2.766758994863603 0 0 0
3 1 1.4315819094660713 1.0082198799813151 2.766758994863603 1 0 0
7 1 0.6445642560845266 3.9515597763846406 2.7667589948636055 1 0 0
8 1 2.4636743377052217 2.904066986882942 0.6864890739135308 1 0 1
11 1 4.306258009443017 2.3232073744382493 2.7667589948636047 1 0 0
2 1 8.957882964256719 2.323207374222889 0.686489073913531 0 0 1
12 1 6.083206864280133 1.0082198799813094 0.6864890739135326 1 0 1
13 1 5.296189210837834 3.9515597763814205 0.6864890739135312 1 0 1
14 1 7.1152992924651715 2.9040669868790094 2.766758994863604 1 0 0
10 1 3.3627802961838973 4.9287165983225325 2.7667589948636038 1 0 0
9 1 1.5266056463912299 5.809537226846636 0.6864890739135331 1 0 1
16 1 0.5895369570151171 8.715007477155043 0.6864890739135349 1 0 1
17 1 2.4086470372822584 7.667514670586651 2.7667589948636 1 0 0
18 1 4.342055954007285 6.690357848876255 0.6864890739135331 1 0 1
19 1 3.3985782384078203 9.295867068060945 0.6864890739135358 1 0 1
5 1 8.014405250935889 4.928716598384526 0.6864890739135319 0 0 1
6 1 8.993680908734357 6.690357849072711 2.766758994863603 0 0 0
15 1 8.050203193245292 9.295867067576372 2.7667589948636007 0 0 0
20 1 5.241161911883516 8.715007477167157 2.7667589948636016 1 0 0
21 1 6.178230601164679 5.809537226840614 2.766758994863603 1 0 0
22 1 7.060271992154428 7.667514670657747 0.6864890739135363 1 0 1

Velocities

27 0 0 0
28 0 0 0
29 0 0 0
31 0 0 0
24 0 0 0
25 0 0 0
30 0 0 0
33 0 0 0
37 0 0 0
38 0 0 0
39 0 0 0
32 0 0 0
4 0 0 0
26 0 0 0
36 0 0 0
34 0 0 0
35 0 0 0
40 0 0 0
23 0 0 0
1 0 0 0
3 0 0 0
7 0 0 0
8 0 0 0
11 0 0 0
2 0 0 0
12 0 0 0
13 0 0 0
14 0 0 0
10 0 0 0
9 0 0 0
16 0 0 0
17 0 0 0
18 0 0 0
19 0 0 0
5 0 0 0
6 0 0 0
15 0 0 0
20 0 0 0
21 0 0 0
22 0 0 0
