LAMMPS data file via write_data, version 29 Sep 2021, timestep = 405

74 atoms
2 atom types

0 9.30324990958494 xlo xhi
-17.48676434144965 17.48676434144965 ylo yhi
0 4.16053984190014 zlo zhi

Masses

1 107.8682
2 107.8682

Atoms # atomic

48 2 0.7964925197519093 -15.065870903773813 3.924401094115988 0 0 -1
49 2 3.6092820800270853 -15.688352030323676 3.9244010941157947 0 0 -1
51 2 2.6309908108167575 -14.039272798996809 1.8441311731657724 0 0 0
35 1 1.67760832735912 -16.96482365138115 1.8441311731665335 1 1 0
45 2 8.260907034819558 -15.688352030323637 1.8441311731657253 0 0 0
50 2 5.448117474544391 -15.065870903773815 1.8441311731659193 0 0 0
53 2 7.282615765609233 -14.039272798996818 3.92440109411584 0 0 -1
39 1 6.3292332821515815 -16.964823651381142 3.924401094116603 1 1 0
57 2 1.7492683934922144 -12.209412668292194 3.924401094115853 0 0 -1
58 2 3.6166665513037026 -11.255376649478931 1.8441311731658048 0 0 0
59 2 0.8429270581437214 -10.319825640353512 1.8441311731658234 0 0 0
60 2 2.7090297313192386 -9.403058489689702 3.924401094115926 0 0 -1
52 2 4.551872131568018 -13.069752994328912 3.924401094115876 0 0 -1
56 2 9.203497086360478 -13.069752994328935 1.8441311731658083 -1 0 0
54 2 6.40089334828468 -12.209412668292195 1.8441311731657841 0 0 0
55 2 8.26829150609617 -11.255376649478924 3.9244010941158733 0 0 -1
61 2 5.494552012936192 -10.319825640353509 3.9244010941158924 0 0 -1
62 2 7.360654686111707 -9.403058489689696 1.8441311731658563 0 0 0
67 2 1.792117774704002 -7.545137579633034 1.8441311731659458 0 0 0
68 2 0.885776439355164 -5.655550551694218 3.924401094116121 0 0 -1
69 2 3.67000323633636 -6.609586570507587 3.9244010941160696 0 0 -1
71 2 2.7347976560715193 -4.795210225657691 1.844131173166102 0 0 0
63 2 4.577640056321056 -8.461904730296808 1.8441311731658985 0 0 0
66 2 9.22926501111352 -8.46190473029681 3.9244010941159693 -1 0 -1
64 2 6.443742729496471 -7.545137579633046 3.9244010941160163 0 0 -1
65 2 8.321628191128832 -6.609586570507587 1.8441311731659995 0 0 0
70 2 5.537401394147631 -5.655550551694215 1.8441311731660517 0 0 0
73 2 7.38642261086399 -4.795210225657677 3.924401094116173 0 0 -1
43 2 3.677387707611881 -2.1766111896630362 1.844131173166152 0 0 0
44 2 1.8385523130946926 -2.7990923162123615 3.9244010941163108 0 0 -1
72 2 4.655678976822599 -3.8256904209896607 3.92440109411621 0 0 -1
1 1 0.9574365054859906 -0.9001395686051676 1.844131173166576 1 0 0
46 2 0.004054022030125282 -3.825690420989657 1.8441311731661392 0 0 0
47 2 8.32901266240435 -2.1766111896630447 3.924401094116223 0 0 -1
74 2 6.490177267887164 -2.799092316212358 1.8441311731662382 0 0 0
4 1 5.609061460278456 -0.90013956860517 3.924401094116647 1 0 0
2 1 2.17483092294325 0.933500126748523 3.9244010941169023 1 0 0
3 1 4.01755883757668 0.4335169007570983 1.844131173166851 1 0 0
5 1 1.2812331191226263 3.8612780632774 3.9244010941170715 1 0 0
7 1 3.1027603200535716 3.029578662048169 1.8441311731669852 1 0 0
14 1 0.3674899889736079 2.054997971882953 1.84413117316691 2 0 0
8 1 5.019114943766079 2.0549979718829587 3.92440109411698 1 0 0
10 1 5.932858073915088 3.8612780632774015 1.8441311731670034 1 0 0
11 1 6.826455877735722 0.9335001267485173 1.8441311731668324 1 0 0
12 1 8.669183792369155 0.4335169007571028 3.9244010941169214 1 0 0
13 1 7.754385274846046 3.029578662048151 3.924401094117054 1 0 0
6 1 2.2161161606686703 5.771278537287832 1.8441311731670944 1 0 0
9 1 4.080858018040881 4.833398811077124 3.924401094117124 1 0 0
15 1 1.3175224164214445 8.554282731456443 1.8441311731671937 1 0 0
16 1 3.170223480853683 7.6264585709951955 3.9244010941172367 1 0 0
24 1 0.37151492692148597 6.6826230837384015 3.9244010941172016 2 0 0
19 1 5.023139881713968 6.6826230837384095 1.8441311731671315 1 0 0
20 1 6.867741115461144 5.771278537287842 3.9244010941171643 1 0 0
21 1 5.969147371213906 8.554282731456434 3.9244010941172647 1 0 0
22 1 7.821848435646157 7.6264585709951715 1.8441311731671646 1 0 0
23 1 8.73248297283335 4.833398811077143 1.8441311731670544 1 0 0
17 1 2.2635299059213483 10.425942379174467 3.9244010941173006 1 0 0
18 1 4.116446306781665 9.482106891917692 1.844131173167216 1 0 0
27 1 3.2058117695943498 12.275166651835743 1.8441311731672296 1 0 0
34 1 0.41892867217413915 11.337286925625053 1.844131173167233 2 0 0
28 1 5.070553626966624 11.337286925625044 3.924401094117303 1 0 0
31 1 6.915154860713823 10.425942379174495 1.8441311731672303 1 0 0
32 1 8.76807126157415 9.482106891917702 3.9244010941172864 1 0 0
33 1 7.8574367243868215 12.275166651835736 3.924401094117299 1 0 0
25 1 1.3538117137201058 13.247287399635553 3.9244010941172704 1 0 0
26 1 2.2675548438691653 15.053567491029893 1.8441311731671235 1 0 0
29 1 4.183909467581635 14.078986800864707 3.9244010941172656 1 0 0
36 1 3.2691109500587703 16.67504856215574 3.924401094117124 1 0 0
42 1 0.4602139098997096 16.175065336164963 3.924401094117078 2 0 0
30 1 6.005436668512588 13.247287399635548 1.8441311731672019 1 0 0
37 1 5.111838864692177 16.175065336164966 1.8441311731670083 1 0 0
38 1 6.919179798661636 15.053567491029883 3.9244010941171936 1 0 0
40 1 7.920735904851233 16.675048562155727 1.8441311731670538 1 0 0
41 1 8.835534422374112 14.078986800864701 1.8441311731671957 1 0 0

Velocities

48 0 0 0
49 0 0 0
51 0 0 0
35 0 0 0
45 0 0 0
50 0 0 0
53 0 0 0
39 0 0 0
57 0 0 0
58 0 0 0
59 0 0 0
60 0 0 0
52 0 0 0
56 0 0 0
54 0 0 0
55 0 0 0
61 0 0 0
62 0 0 0
67 0 0 0
68 0 0 0
69 0 0 0
71 0 0 0
63 0 0 0
66 0 0 0
64 0 0 0
65 0 0 0
70 0 0 0
73 0 0 0
43 0 0 0
44 0 0 0
72 0 0 0
1 0 0 0
46 0 0 0
47 0 0 0
74 0 0 0
4 0 0 0
2 0 0 0
3 0 0 0
5 0 0 0
7 0 0 0
14 0 0 0
8 0 0 0
10 0 0 0
11 0 0 0
12 0 0 0
13 0 0 0
6 0 0 0
9 0 0 0
15 0 0 0
16 0 0 0
24 0 0 0
19 0 0 0
20 0 0 0
21 0 0 0
22 0 0 0
23 0 0 0
17 0 0 0
18 0 0 0
27 0 0 0
34 0 0 0
28 0 0 0
31 0 0 0
32 0 0 0
33 0 0 0
25 0 0 0
26 0 0 0
29 0 0 0
36 0 0 0
42 0 0 0
30 0 0 0
37 0 0 0
38 0 0 0
40 0 0 0
41 0 0 0
