LAMMPS data file via write_data, version 29 Sep 2021, timestep = 282

76 atoms
2 atom types

0 9.30324990958494 xlo xhi
-17.91538012363745 17.91538012363745 ylo yhi
0 4.16053984190014 zlo zhi

Masses

1 107.8682
2 107.8682

Atoms # atomic

48 2 0.646971384077017 -15.742809709418422 0.22992457021027374 0 0 0
49 2 3.46009794823763 -16.1351282207299 0.22992457021027482 0 0 0
51 2 2.40523911093493 -14.535563680277866 2.3101944911603454 0 0 0
52 2 4.3134348796492255 -13.543941807172109 0.22992457021027587 0 0 0
35 1 2.061450870918177 -17.50640888281674 2.3101944911603467 0 1 0
45 2 8.111722903030097 -16.13512822072985 2.310194491160348 0 0 0
50 2 5.298596338869493 -15.742809709418413 2.3101944911603476 0 0 0
53 2 7.0568640657273995 -14.53556368027788 0.2299245702102725 0 0 0
56 2 8.965059834441679 -13.543941807172148 2.3101944911603467 -1 0 0
39 1 6.713075825710642 -17.506408882816743 0.22992457021027563 0 1 1
57 2 1.4684477718635096 -12.740165168748817 0.2299245702102736 0 0 0
58 2 3.307594886671474 -11.751394583385729 2.310194491160348 0 0 0
59 2 0.5104944976130726 -10.816277153850574 2.3101944911603463 0 0 0
60 2 2.3434921591711637 -9.909025318683076 0.22992457021027607 0 0 0
63 2 4.185691077415062 -8.94937089615076 2.3101944911603467 0 0 0
54 2 6.120072726655971 -12.74016516874881 2.3101944911603454 0 0 0
55 2 7.95921984146394 -11.751394583385725 0.2299245702102767 0 0 0
61 2 5.16211945240554 -10.816277153850578 0.2299245702102752 0 0 0
62 2 6.995117113963635 -9.90902531868308 2.310194491160346 0 0 0
66 2 8.837316032207536 -8.949370896150766 0.22992457021027607 -1 0 0
67 2 1.3670637841868785 -8.04211906097125 2.310194491160346 0 0 0
68 2 0.40911050993683995 -6.118231046097353 0.22992457021027543 0 0 0
69 2 3.221588349914046 -7.107001631443142 0.2299245702102776 0 0 0
71 2 2.2157483569534207 -5.314454407621616 2.310194491160346 0 0 0
64 2 6.018688738979357 -8.042119060971237 0.22992457021027543 0 0 0
65 2 7.8732133047065105 -7.10700163144314 2.3101944911603485 0 0 0
70 2 5.060735464729324 -6.11823104609735 2.310194491160345 0 0 0
73 2 6.867373311745884 -5.314454407621656 0.22992457021027526 0 0 0
46 2 3.069085288432864 -2.7232679940387357 2.3101944911603454 0 0 0
47 2 1.2305868977994623 -3.115586505580495 0.2299245702102771 0 0 0
43 2 4.467732366067591 -1.3519873320476514 0.22992457021027476 0 0 0
72 2 4.12394412565628 -4.322832534554253 0.2299245702102738 0 0 0
1 1 2.4852560245621342 -0.14026155720835295 2.3101944911603467 0 0 0
44 2 9.119357320860054 -1.3519873320476525 2.3101944911603463 -1 0 0
76 2 8.775569080448758 -4.322832534554261 2.3101944911603454 -1 0 0
74 2 5.882211852591926 -3.115586505580499 2.3101944911603476 0 0 0
75 2 7.720710243225348 -2.7232679940386997 0.22992457021027432 0 0 0
4 1 7.136880979354611 -0.1402615572083638 0.22992457021027637 0 0 1
2 1 3.4477850919700743 1.5308753385234322 0.22992457021027435 0 0 1
5 1 2.431128941491087 4.310172633965454 0.22992457021027532 0 0 1
7 1 4.310786210697036 3.36313768737117 2.3101944911603463 0 0 0
12 1 0.6456573842032227 0.5200780311010836 0.22992457021027476 1 0 1
14 1 1.5224823303156005 2.4927360231649605 2.3101944911603454 1 0 0
3 1 5.297282338995694 0.5200780311010829 2.310194491160345 0 0 0
8 1 6.174107285108065 2.492736023164965 0.22992457021027493 0 0 1
10 1 7.082753896283568 4.3101726339654505 2.3101944911603463 0 0 0
11 1 8.099410046762545 1.5308753385234337 2.3101944911603454 0 0 0
13 1 8.962411165489513 3.36313768737118 0.22992457021027576 0 0 1
6 1 3.3165136206458277 6.161811594918466 2.310194491160346 0 0 0
15 1 2.3249861189965992 8.947669008477899 2.3101944911603467 0 0 0
16 1 4.204197118031459 8.024695024026245 0.22992457021027304 0 0 1
23 1 0.5416107364217339 5.24597958623916 2.310194491160345 1 0 0
24 1 1.435360266528205 7.094528431148206 0.22992457021027418 1 0 1
9 1 5.193235691214202 5.2459795862391605 0.22992457021027476 0 0 1
19 1 6.08698522132068 7.0945284311481975 2.310194491160345 0 0 0
20 1 7.968138575438291 6.16181159491847 0.2299245702102741 0 0 1
21 1 6.97661107378906 8.9476690084779 0.22992457021027676 0 0 1
22 1 8.855822072823916 8.024695024026252 2.310194491160345 0 0 0
17 1 3.2126696163803707 10.810552437583947 0.2299245702102754 0 0 1
27 1 4.098054295531901 12.662191398536594 2.310194491160344 0 0 0
32 1 0.44219801570721384 9.877835601355583 0.229924570210275 1 0 1
34 1 1.3359475458088486 11.726384446266271 2.3101944911603454 1 0 0
18 1 5.093822970499687 9.877835601355583 2.3101944911603463 0 0 0
28 1 5.98757250060133 11.726384446266264 0.2299245702102748 0 0 1
31 1 7.864294571172835 10.81055243758395 2.3101944911603445 0 0 0
33 1 8.749679250324373 12.662191398536578 0.22992457021027465 0 0 1
25 1 2.218397026321567 13.60922634512568 0.22992457021027607 0 0 1
26 1 3.0813981450507035 15.441488693978627 2.310194491160347 0 0 0
36 1 4.043927212448205 17.112625589761205 0.22992457021027438 0 0 1
41 1 0.35507595190215796 14.479628009349337 2.3101944911603463 1 0 0
42 1 1.2319008980073067 16.45228600137954 0.22992457021027593 1 0 1
30 1 6.870021981114046 13.609226345125693 2.3101944911603467 0 0 0
29 1 5.006700906694619 14.479628009349325 0.22992457021027596 0 0 1
37 1 5.883525852799766 16.452286001379562 2.310194491160345 0 0 0
38 1 7.733023099843173 15.44148869397863 0.229924570210277 0 0 1
40 1 8.695552167240693 17.112625589761162 2.310194491160345 0 0 0

Velocities

48 0 0 0
49 0 0 0
51 0 0 0
52 0 0 0
35 0 0 0
45 0 0 0
50 0 0 0
53 0 0 0
56 0 0 0
39 0 0 0
57 0 0 0
58 0 0 0
59 0 0 0
60 0 0 0
63 0 0 0
54 0 0 0
55 0 0 0
61 0 0 0
62 0 0 0
66 0 0 0
67 0 0 0
68 0 0 0
69 0 0 0
71 0 0 0
64 0 0 0
65 0 0 0
70 0 0 0
73 0 0 0
46 0 0 0
47 0 0 0
43 0 0 0
72 0 0 0
1 0 0 0
44 0 0 0
76 0 0 0
74 0 0 0
75 0 0 0
4 0 0 0
2 0 0 0
5 0 0 0
7 0 0 0
12 0 0 0
14 0 0 0
3 0 0 0
8 0 0 0
10 0 0 0
11 0 0 0
13 0 0 0
6 0 0 0
15 0 0 0
16 0 0 0
23 0 0 0
24 0 0 0
9 0 0 0
19 0 0 0
20 0 0 0
21 0 0 0
22 0 0 0
17 0 0 0
27 0 0 0
32 0 0 0
34 0 0 0
18 0 0 0
28 0 0 0
31 0 0 0
33 0 0 0
25 0 0 0
26 0 0 0
36 0 0 0
41 0 0 0
42 0 0 0
30 0 0 0
29 0 0 0
37 0 0 0
38 0 0 0
40 0 0 0
