LAMMPS data file via write_data, version 29 Sep 2021, timestep = 250

36 atoms
2 atom types

0 9.30324990958494 xlo xhi
-8.55298498322973 8.55298498322973 ylo yhi
0 4.16053984190014 zlo zhi

Masses

1 107.8682
2 107.8682

Atoms # atomic

28 2 0.4902029851823387 -6.217740752476677 0.25425521256028244 0 0 0
29 2 3.3451309149253152 -6.874238735559427 0.25425521256031464 0 0 0
31 2 2.3528669052147384 -5.179414819668685 2.3345251335109936 0 0 0
15 1 1.4137641186630718 -7.974334472831518 2.3345251335107013 1 1 0
25 2 7.996755869719666 -6.874238735576752 2.3345251335109167 0 0 0
30 2 5.141827939974627 -6.217740752490761 2.3345251335109722 0 0 0
33 2 7.004491860001019 -5.179414819689178 0.25425521256017336 0 0 0
19 1 6.065389073442142 -7.974334472851994 0.25425521256035494 1 1 1
24 2 2.1065188433835855 -0.9029223280564144 0.25425521256070427 0 0 0
26 2 3.291969691773322 -2.384495166506162 2.3345251335107156 0 0 0
27 2 1.3606028954962877 -3.484590903780229 0.25425521256032185 0 0 0
32 2 4.2155308252410615 -4.141088886867306 0.2542552125602793 0 0 0
1 1 0.2718743478896347 -0.902922328088111 2.3345251335105757 1 0 0
36 2 8.867155780033253 -4.141088886881266 2.3345251335109536 -1 0 0
23 2 6.758143798175951 -0.9029223280712753 2.3345251335107173 0 0 0
34 2 6.012227850290627 -3.4845909037980096 2.33452513351091 0 0 0
35 2 7.943594646552756 -2.3844951665272047 0.2542552125603856 0 0 0
4 1 4.923499302682101 -0.9029223280449151 0.2542552125605588 1 0 1
2 1 1.360602895498982 1.6787462476705701 0.2542552125607401 1 0 1
3 1 3.291969691761735 0.5786505103961401 2.334525133510463 1 0 0
7 1 2.3528669052108326 3.3735701635612307 2.334525133510413 1 0 0
8 1 4.215530825241307 2.3352442307528873 0.2542552125607621 1 0 1
11 1 6.012227850289856 1.6787462476527815 2.3345251335105006 1 0 0
12 1 7.943594646567372 0.5786505103754845 0.2542552125606313 1 0 1
13 1 7.004491860009272 3.3735701635404216 0.2542552125607522 1 0 1
14 1 8.867155780034055 2.335244230738535 2.3345251335104664 1 0 0
5 1 0.49020298518500083 4.411896096363036 0.25425521256075956 1 0 1
6 1 1.4137641186519725 6.168489816725469 2.3345251335104584 1 0 0
9 1 3.345130914930355 5.068394079448312 0.25425521256073147 1 0 1
16 1 2.599214967041619 7.650062655174701 0.2542552125607438 1 0 1
17 1 4.433859462535281 7.650062655143116 2.3345251335105526 1 0 0
10 1 5.141827939977368 4.411896096349051 2.334525133510482 1 0 0
18 1 6.065389073457749 6.168489816704689 0.2542552125606068 1 0 1
20 1 7.250839921834443 7.650062655158349 2.334525133510776 1 0 0
21 1 7.9967558697206504 5.06839407943177 2.334525133510507 1 0 0
22 1 9.08548441732778 7.6500626551862885 0.25425521256052763 1 0 1

Velocities

28 0 0 0
29 0 0 0
31 0 0 0
15 0 0 0
25 0 0 0
30 0 0 0
33 0 0 0
19 0 0 0
24 0 0 0
26 0 0 0
27 0 0 0
32 0 0 0
1 0 0 0
36 0 0 0
23 0 0 0
34 0 0 0
35 0 0 0
4 0 0 0
2 0 0 0
3 0 0 0
7 0 0 0
8 0 0 0
11 0 0 0
12 0 0 0
13 0 0 0
14 0 0 0
5 0 0 0
6 0 0 0
9 0 0 0
16 0 0 0
17 0 0 0
10 0 0 0
18 0 0 0
20 0 0 0
21 0 0 0
22 0 0 0
