LAMMPS data file via write_data, version 29 Sep 2021, timestep = 643

44 atoms
2 atom types

0 9.30324990958494 xlo xhi
-10.539298090570444 10.539298090570444 ylo yhi
0 4.16053984190014 zlo zhi

Masses

1 107.8682
2 107.8682

Atoms # atomic

27 2 2.7841151510702105 -10.03322502553493 2.288296175112979 0 0 0
28 2 0.9363604400409271 -6.829773272065274 0.2080262544008411 0 0 0
29 2 3.818246125187494 -8.14400309568341 0.208026254273713 0 0 0
31 2 2.784115143840175 -6.254781167175104 2.2882961753813853 0 0 0
23 2 5.587985402076447 -9.458232917830708 2.288296174997734 0 0 0
26 2 0.9363604473383522 -9.458232917877368 0.20802625416303666 0 0 0
24 2 7.435740105858633 -10.033225025441473 0.20802625413784606 0 0 0
25 2 8.469871080048138 -8.144003095743544 2.2882961752405073 0 0 0
30 2 5.587985394771113 -6.82977327213556 2.2882961754503803 0 0 0
33 2 7.435740098635001 -6.254781167359828 0.208026254432569 0 0 0
36 2 9.264647089833117 -5.182127390437587 2.2882961753591573 -1 0 0
37 2 1.8749781906973149 -4.229816347741781 0.20802625446213918 0 0 0
38 2 3.7213685423182974 -3.370029276635984 2.288296175555655 0 0 0
39 2 0.9302559853500303 -2.378678824166031 2.2882961755383118 0 0 0
40 2 2.7766463373451122 -1.5188917523900431 0.2080262545366612 0 0 0
44 2 0.03860239242929329 -0.5665807099568005 0.2080262545988597 0 0 0
32 2 4.613022135116979 -5.1821273902932345 0.20802625451413204 0 0 0
34 2 6.526603145540191 -4.2298163477712345 2.2882961754690885 0 0 0
35 2 8.372993496994493 -3.3700292767626387 0.20802625443171438 0 0 0
41 2 5.581880940263133 -2.378678824029835 0.2080262545880359 0 0 0
42 2 7.428271292097961 -1.518891752470646 2.2882961755315674 0 0 0
43 2 4.690227347268035 -0.5665807098244254 2.288296175583173 0 0 0
1 1 8.366889042411369 1.0810651729194336 2.2882961754701254 -1 0 0
2 1 0.8333784103928839 2.3952949949208087 0.20802625444597783 0 0 1
3 1 1.867509383855492 0.50607306485653 2.2882961756088385 0 0 0
7 1 1.8675093921030559 4.284516923430901 2.2882961751709057 0 0 0
8 1 3.715264096023385 3.7095248186047645 0.20802625417310328 0 0 1
4 1 3.715264087566674 1.0810651728755138 0.2080262547449281 0 0 1
11 1 5.485003365196502 2.395294994925484 2.2882961754450055 0 0 0
12 1 6.519134338671523 0.5060730650271158 0.20802625450886908 0 0 1
13 1 6.519134346897897 4.284516923442959 0.20802625433827143 0 0 1
14 1 8.366889050859639 3.7095248185437564 2.2882961753037345 0 0 0
10 1 4.690227355587455 5.3571707004030475 2.2882961751097923 0 0 0
6 1 0.9302559933260791 7.1692688139766165 2.288296175125325 0 0 0
9 1 2.7766463450264225 6.309481742987793 0.20802625409596376 0 0 1
16 1 1.8749781979788676 9.020406338215148 0.20802625417789447 0 0 1
17 1 3.721368550000608 8.160619266579513 2.288296175043909 0 0 0
19 1 4.6130221427063 9.972717380616702 0.20802625407720698 0 0 1
5 1 0.03860240080272703 5.357170700419694 0.20802625423145338 0 0 1
15 1 9.264647097470004 9.9727173806231 2.2882961750859674 -1 0 0
18 1 5.581880948082532 7.169268814004575 0.20802625410860218 0 0 1
20 1 6.526603152742363 9.020406338168177 2.2882961750182207 0 0 0
21 1 7.428271299844488 6.309481742985855 2.288296175216194 0 0 0
22 1 8.3729935048371 8.160619266602636 0.20802625409811287 0 0 1

Velocities

27 0 0 0
28 0 0 0
29 0 0 0
31 0 0 0
23 0 0 0
26 0 0 0
24 0 0 0
25 0 0 0
30 0 0 0
33 0 0 0
36 0 0 0
37 0 0 0
38 0 0 0
39 0 0 0
40 0 0 0
44 0 0 0
32 0 0 0
34 0 0 0
35 0 0 0
41 0 0 0
42 0 0 0
43 0 0 0
1 0 0 0
2 0 0 0
3 0 0 0
7 0 0 0
8 0 0 0
4 0 0 0
11 0 0 0
12 0 0 0
13 0 0 0
14 0 0 0
10 0 0 0
6 0 0 0
9 0 0 0
16 0 0 0
17 0 0 0
19 0 0 0
5 0 0 0
15 0 0 0
18 0 0 0
20 0 0 0
21 0 0 0
22 0 0 0
