LAMMPS data file via write_data, version 29 Sep 2021, timestep = 168

36 atoms
2 atom types

0 9.30324990958494 xlo xhi
-8.73189290761848 8.73189290761848 ylo yhi
0 4.16053984190014 zlo zhi

Masses

1 107.8682
2 107.8682

Atoms # atomic

28 2 0.9530788369997977 -5.698001844474538 0.5085103156796578 0 0 0
29 2 4.532313485095238 -7.507097428872192 0.5085103547162426 0 0 0
31 2 2.728597466454021 -6.472064509020504 2.5887802527234243 0 0 0
32 2 3.9361644239932043 -4.7408165749504825 0.5085102950872813 0 0 0
15 1 1.7006222520908965 -8.417303265827005 0.508510371891882 1 1 0
25 2 9.183938439887704 -7.507097428872192 2.5887802756663123 0 0 0
30 2 5.604703791792268 -5.698001844474541 2.5887802366297277 0 0 0
33 2 7.380222421246491 -6.472064509020504 0.5085103317733543 0 0 0
36 2 8.587789378785676 -4.740816574950481 2.588780216037352 -1 0 0
19 1 6.352247206883368 -8.417303265827007 2.588780292841952 1 1 0
24 2 0.06777672819381425 -2.063889292152597 2.5887804555125697 0 0 0
26 2 2.943883053529775 -1.2898266276054207 2.5887804394188922 0 0 0
27 2 1.7363160959956716 -3.0210745616768553 0.5085105551548612 0 0 0
1 1 1.1401670348853086 -0.25479370775534677 0.5085104955259717 1 0 0
23 2 4.719401682986285 -2.0638892921525978 0.5085105345624996 0 0 0
34 2 6.387941050788142 -3.0210745616768593 2.5887804761049313 0 0 0
35 2 7.595508008322245 -1.2898266276054215 0.5085105184688204 0 0 0
4 1 5.79179198967778 -0.25479370775534665 2.5887804164760415 1 0 0
2 1 2.1819783003108117 1.5609820041934412 2.5887803877757065 1 0 0
3 1 3.9718582678868337 0.6554121291995711 0.5085104783503782 1 0 0
7 1 3.2159859882692263 3.450080495726655 0.5085104417543519 1 0 0
14 1 0.3704814806929624 2.523808738018479 0.5085104528920409 2 0 0
8 1 5.022106435485431 2.523808738018479 2.5887803738421105 1 0 0
11 1 6.833603255103281 1.5609820041934426 0.5085104668256362 1 0 0
12 1 8.623483222679303 0.6554121291995721 2.5887803993004477 1 0 0
13 1 7.8676109430616945 3.4500804957266507 2.5887803627044215 1 0 0
5 1 1.4145531777897913 4.377199667327024 2.5887803517142807 1 0 0
6 1 2.4564945317031373 6.251814182883315 0.508510408488024 1 0 0
9 1 4.257927342181844 5.32469501128293 2.588780340428253 1 0 0
16 1 3.490502219664445 8.140912674416874 2.588780304366731 1 0 0
22 1 0.650374084488075 7.178085940591176 2.5887803183003735 2 0 0
10 1 6.0661781325822615 4.37719966732702 0.5085104307642108 1 0 0
17 1 5.301999039280547 7.178085940591179 0.5085103973503033 1 0 0
18 1 7.108119486495611 6.2518141828833125 2.588780329438093 1 0 0
20 1 8.142127174456915 8.140912674416867 0.5085103834166603 1 0 0
21 1 8.909552296974317 5.3246950112829285 0.5085104194781825 1 0 0

Velocities

28 0 0 0
29 0 0 0
31 0 0 0
32 0 0 0
15 0 0 0
25 0 0 0
30 0 0 0
33 0 0 0
36 0 0 0
19 0 0 0
24 0 0 0
26 0 0 0
27 0 0 0
1 0 0 0
23 0 0 0
34 0 0 0
35 0 0 0
4 0 0 0
2 0 0 0
3 0 0 0
7 0 0 0
14 0 0 0
8 0 0 0
11 0 0 0
12 0 0 0
13 0 0 0
5 0 0 0
6 0 0 0
9 0 0 0
16 0 0 0
22 0 0 0
10 0 0 0
17 0 0 0
18 0 0 0
20 0 0 0
21 0 0 0
