LAMMPS data file via write_data, version 29 Sep 2021, timestep = 604

44 atoms
2 atom types

0 9.30324990958494 xlo xhi
-10.539298088839574 10.539298088839574 ylo yhi
0 4.16053984190014 zlo zhi

Masses

1 107.8682
2 107.8682

Atoms # atomic

27 2 1.5654208884944296 -8.746009265077662 1.8722429288488776 0 0 0
28 2 0.5904576292951788 -7.098363382765172 3.9525128498033495 0 0 -1
29 2 3.413175592149696 -8.171017151167744 3.9525128497990414 0 0 -1
31 2 2.5040386407544024 -6.146052339211309 1.872242928853021 0 0 0
23 2 4.447306553516312 -10.060239084099859 1.8722429288409328 0 0 0
36 2 9.002053948562422 -5.286265267134388 1.872242928853491 -1 0 0
26 2 9.098931514002773 -10.060239085325952 3.952512849790854 -1 0 -1
24 2 6.217045842411304 -8.746009262665618 3.9525128497983615 0 0 -1
25 2 8.064800546519601 -8.171017156589565 1.8722429288483236 0 0 0
30 2 5.2420825851636295 -7.098363379660344 1.8722429288523859 0 0 0
33 2 7.155663596676324 -6.146052338490377 3.9525128498031883 0 0 -1
32 2 4.350428994636623 -5.286265266399456 3.9525128498040933 0 0 -1
37 2 1.5593164384260667 -4.2949148169048925 3.952512849807513 0 0 -1
38 2 3.405706791933882 -3.4351277448969912 1.872242928857191 0 0 0
39 2 0.6676628491726183 -2.482816702132955 1.8722429288558722 0 0 0
40 2 2.4965698431367844 -1.410162926933285 3.9525128498076416 0 0 -1
44 2 8.995949504262745 -0.8351708186676848 3.9525128498096436 -1 0 -1
34 2 6.210941394188889 -4.294914813776654 1.8722429288567808 0 0 0
35 2 8.057331746827165 -3.43512774155916 3.9525128498075373 0 0 -1
41 2 5.319287804511938 -2.4828167025504806 3.9525128498073827 0 0 -1
42 2 7.1481947987424315 -1.4101629200931405 1.8722429288564704 0 0 0
43 2 4.344324547033392 -0.8351708219220196 1.872242928859635 0 0 0
1 1 1.462438859948628 0.4790590042522902 1.87224292884999 1 0 0
2 1 2.496569822268382 2.3682809381738483 3.9525128497923716 1 0 0
3 1 4.344324526197235 1.7932888249212287 1.8722429288419313 1 0 0
5 1 1.5593164186308412 5.253032823669986 3.9525128497872135 1 0 0
7 1 3.405706773387425 4.393245750562787 1.872242928837805 1 0 0
14 1 0.6676628292080636 3.440934710406756 1.8722429288383369 2 0 0
4 1 6.114063809216235 0.47905900405727597 3.9525128498003483 1 0 0
8 1 5.3192877845618565 3.4409347081515294 3.952512849788132 1 0 0
10 1 6.210941374010462 5.253032823551295 1.8722429288373192 1 0 0
11 1 7.148194777362062 2.36828093403723 1.872242928842536 1 0 0
12 1 8.995949481673271 1.7932888267493112 3.9525128497931155 1 0 0
13 1 8.057331726866833 4.393245751317153 3.9525128497881155 1 0 0
6 1 2.5040386209575614 7.104170344224876 1.8722429288336773 1 0 0
9 1 4.350428973884773 6.24438327406077 3.9525128497836723 1 0 0
15 1 1.5654208643681253 9.704127266761503 1.8722429288312392 1 0 0
16 1 3.4131755686668304 9.12913516416154 3.952512849783478 1 0 0
17 1 5.242082562429388 8.056481387988528 1.8722429288349876 1 0 0
22 1 0.590457607358485 8.05648138686745 3.952512849783806 2 0 0
18 1 7.155663575321302 7.104170347755958 3.952512849783604 1 0 0
19 1 6.217045816995137 9.70412726995795 3.952512849781445 1 0 0
20 1 8.06480052274338 9.129135169717333 1.8722429288344093 1 0 0
21 1 9.002053927976032 6.244383276202808 1.872242928834053 1 0 0

Velocities

27 0 0 0
28 0 0 0
29 0 0 0
31 0 0 0
23 0 0 0
36 0 0 0
26 0 0 0
24 0 0 0
25 0 0 0
30 0 0 0
33 0 0 0
32 0 0 0
37 0 0 0
38 0 0 0
39 0 0 0
40 0 0 0
44 0 0 0
34 0 0 0
35 0 0 0
41 0 0 0
42 0 0 0
43 0 0 0
1 0 0 0
2 0 0 0
3 0 0 0
5 0 0 0
7 0 0 0
14 0 0 0
4 0 0 0
8 0 0 0
10 0 0 0
11 0 0 0
12 0 0 0
13 0 0 0
6 0 0 0
9 0 0 0
15 0 0 0
16 0 0 0
17 0 0 0
22 0 0 0
18 0 0 0
19 0 0 0
20 0 0 0
21 0 0 0
