ITEM: TIMESTEP
0
ITEM: NUMBER OF ATOMS
160
ITEM: BOX BOUNDS pp pp pp
-4.599605 4.599605
-18.68945 18.68945
-13.25 13.25
ITEM: ATOMS x y z id c_eng type mass
-0.4648084837 -15.6939498087 -6.4975085 115 -2.79648 1 107.8682
-1.2034958475 -18.6630204638 -6.3591255 116 -2.96644 1 107.8682
-3.1871214998 -14.9953755466 -6.181284 119 -2.92918 1 107.8682
-4.4874969875 -17.4049839077 -6.467378 120 -2.67375 1 107.8682
-2.376330728 -16.9069437063 -8.401666 198 -2.92932 1 107.8682
3.1703053439 -14.1615569485 -6.29163 108 -2.96312 1 107.8682
1.8374042093 -17.3572921692 -5.949886 114 -2.98571 1 107.8682
3.9955020785 -15.7857112703 -8.5119855 193 -2.85142 1 107.8682
1.3628537623 -14.7912792768 -8.4790195 194 -2.87345 1 107.8682
0.5053310037 -17.3936618389 -8.4735605 195 -2.69836 1 107.8682
-1.4223358541 -9.4341353288 -6.247905 104 -2.97104 1 107.8682
-2.3249439409 -12.2125837236 -6.2552985 105 -2.97429 1 107.8682
-0.4919093563 -11.2399473667 -8.3763055 183 -2.9744 1 107.8682
-3.2615615071 -10.3414333685 -8.35545 189 -2.97455 1 107.8682
-4.19064768 -13.1152094008 -8.3537275 190 -2.96559 1 107.8682
-1.4679179397 -13.9851285405 -8.437388 192 -2.95446 1 107.8682
4.1075852532 -11.304126938 -6.2499455 91 -2.97115 1 107.8682
0.4775309911 -13.0311068758 -6.2999775 97 -2.95492 1 107.8682
1.3705902979 -10.2954199426 -6.2515885 98 -2.96641 1 107.8682
3.1934229586 -9.3904767736 -8.35492 182 -2.96715 1 107.8682
2.2942277787 -12.1276588628 -8.3878595 184 -2.96008 1 107.8682
-0.5219815738 -6.667648182 -6.245785 83 -2.96704 1 107.8682
-4.1766648808 -8.4983919462 -6.2344695 88 -2.97279 1 107.8682
-3.2680193525 -5.6971050435 -6.2327735 89 -2.97205 1 107.8682
-1.4339268588 -4.7639034261 -8.3496465 177 -2.97903 1 107.8682
-2.3476843881 -7.5592844626 -8.347553 178 -2.9743 1 107.8682
3.1782534613 -4.7298138693 -6.236775 81 -2.97501 1 107.8682
2.2719932882 -7.5272133664 -6.2378085 82 -2.97215 1 107.8682
4.0951111244 -6.6405484795 -8.345592 171 -2.96554 1 107.8682
1.3427626877 -5.7091410493 -8.350097 173 -2.97139 1 107.8682
0.4253438728 -8.4771233521 -8.354761 174 -2.97119 1 107.8682
-2.333444011 -2.8984720427 -6.2367485 75 -2.95396 1 107.8682
-0.4993975133 -1.9376100393 -8.391278 164 -2.90686 1 107.8682
-3.2672282204 -1.3297169886 -8.37241 168 -2.72922 1 107.8682
-4.2060030013 -3.9227660394 -8.356881 169 -2.93966 1 107.8682
4.0799508263 -1.8707018083 -6.2874165 62 -2.96106 1 107.8682
1.2236421174 -1.3053833247 -6.254318 68 -2.80027 1 107.8682
0.3669564869 -3.9382782829 -6.2583195 69 -2.94231 1 107.8682
3.244037012 -0.0584979785 -8.4778005 162 -2.9147 1 107.8682
2.2881195033 -2.9370844464 -8.3508655 163 -2.94762 1 107.8682
-4.4987880978 1.3336417731 -5.938968 58 -2.98078 1 107.8682
-2.1961825986 3.0052261811 -6.4852655 59 -2.79515 1 107.8682
-1.440071931 0.0098680296 -6.36053 60 -2.96553 1 107.8682
-0.2928292527 1.8019993901 -8.3791675 154 -2.92259 1 107.8682
-4.0229249235 3.9028430857 -8.4545865 158 -2.87844 1 107.8682
-3.1674351904 1.2866564958 -8.4500815 159 -2.70084 1 107.8682
3.3735986857 4.5510305906 -6.2728415 46 -2.95943 1 107.8682
1.8160160461 1.2718170725 -6.4643305 52 -2.67523 1 107.8682
0.5327078527 3.6995766275 -6.1639795 53 -2.93484 1 107.8682
2.5404446344 2.9163391569 -8.4807155 155 -2.85248 1 107.8682
-1.2219218651 9.2857784747 -6.231634 33 -2.97119 1 107.8682
-0.3245021328 6.4991441008 -6.2361655 38 -2.97495 1 107.8682
-4.0162803341 8.4207933498 -6.2352115 44 -2.96709 1 107.8682
-3.1294240546 5.6763971329 -6.2845015 45 -2.95559 1 107.8682
-1.1891910759 4.7285803656 -8.409828 149 -2.9543 1 107.8682
-2.1556508793 7.4820596552 -8.3528795 151 -2.97421 1 107.8682
2.4431261918 7.4135067526 -6.2326675 39 -2.97054 1 107.8682
3.3625504345 9.332389963 -8.3359725 141 -2.9676 1 107.8682
4.2561616939 6.5848165396 -8.3634795 142 -2.96245 1 107.8682
1.5368200226 5.5983873686 -8.3275455 145 -2.96654 1 107.8682
0.6154363482 8.3820314305 -8.3336405 146 -2.97458 1 107.8682
-2.1191944101 12.053947672 -6.2338335 29 -2.96649 1 107.8682
-1.2071479338 13.9638973253 -8.344002 133 -2.97968 1 107.8682
-0.2942275326 11.1687031833 -8.333508 136 -2.97447 1 107.8682
-3.9841447338 13.0167159993 -8.341617 139 -2.97113 1 107.8682
-3.0681849137 10.2494065167 -8.3380395 140 -2.97114 1 107.8682
4.2854795761 11.1936722885 -6.2243465 17 -2.97251 1 107.8682
3.3794585824 13.990174692 -6.227712 18 -2.9753 1 107.8682
0.6267145797 13.0246029472 -6.2221205 24 -2.97217 1 107.8682
1.5336738928 10.2236150757 -6.219921 25 -2.97263 1 107.8682
2.4640451953 12.0837012764 -8.334939 135 -2.96474 1 107.8682
-0.3098937873 15.8178533864 -6.229355 8 -2.95391 1 107.8682
-3.0085740329 14.7784209352 -6.250131 14 -2.94048 1 107.8682
-3.8654565264 17.4069051832 -6.2464475 15 -2.8002 1 107.8682
-2.1451637799 16.7881348726 -8.3925765 129 -2.90928 1 107.8682
2.4758293834 16.8443901171 -6.2835475 10 -2.96323 1 107.8682
4.2687186155 15.7840254819 -8.349196 121 -2.94749 1 107.8682
3.3069780069 18.6474734953 -8.4913155 122 -2.91371 1 107.8682
1.5671038219 14.7937836631 -8.3537275 125 -2.93578 1 107.8682
0.6249483313 17.3765161375 -8.370131 126 -2.72661 1 107.8682
-0.3255876395 -15.560361358 -1.750007 110 -2.35373 1 107.8682
-0.6102387946 -16.9353441945 -4.136491 113 -2.73571 1 107.8682
-3.0332555133 -15.3834619758 -2.593767 117 -2.61869 1 107.8682
-3.1044941955 -17.9405562627 -4.071672 118 -2.85809 1 107.8682
4.3493496912 -17.3540140397 -1.7574535 106 -2.35499 1 107.8682
3.9260848399 -16.0010473753 -4.22145 107 -2.86961 1 107.8682
3.2313053054 -14.2744412265 -2.1076245 109 -2.5278 1 107.8682
1.7008235385 -17.3904584672 -2.623394 111 -2.68136 1 107.8682
1.3537097476 -14.9278243985 -4.1764795 112 -2.90939 1 107.8682
-0.459086575 -11.2449561393 -4.1673635 94 -2.95204 1 107.8682
-1.2791501505 -14.0089015209 -4.2176605 99 -2.90971 1 107.8682
-1.4321054152 -9.517789307 -2.103305 100 -2.53615 1 107.8682
-3.2600620359 -10.41376154 -4.147515 101 -2.95952 1 107.8682
-2.3154687546 -12.3739484349 -2.14544 102 -2.53162 1 107.8682
-4.1862780553 -13.2180761336 -4.1734055 103 -2.93874 1 107.8682
4.1047886933 -11.3593729522 -2.117085 90 -2.52525 1 107.8682
3.2094571816 -9.3961209875 -4.1564985 92 -2.95677 1 107.8682
1.4083162581 -10.2354268081 -2.11046 93 -2.53035 1 107.8682
2.3188080679 -12.201220538 -4.1824155 95 -2.94878 1 107.8682
0.5649786814 -12.951041272 -2.107598 96 -2.52774 1 107.8682
-0.5419254611 -6.7171752245 -2.1014235 78 -2.536 1 107.8682
-1.4604573804 -4.796834237 -4.1588835 84 -2.95341 1 107.8682
-3.2749923537 -5.6707155401 -2.121749 85 -2.5368 1 107.8682
-2.3575183435 -7.6027935022 -4.146826 86 -2.9573 1 107.8682
-4.1815781789 -8.5110260144 -2.109347 87 -2.53501 1 107.8682
4.1081832018 -6.5787985367 -4.1496085 76 -2.95875 1 107.8682
1.3237939166 -5.7122808769 -4.1511455 77 -2.95042 1 107.8682
2.2900697358 -7.4703600595 -2.103252 79 -2.53673 1 107.8682
0.4265765669 -8.4791791916 -4.153981 80 -2.95194 1 107.8682
-0.5876455348 -1.9711015337 -4.1675225 67 -2.9525 1 107.8682
-1.5104734852 -0.0247448318 -2.0543065 71 -2.49391 1 107.8682
-3.2797759429 -0.8957479596 -4.255158 72 -2.94803 1 107.8682
-2.381454688 -2.8426279661 -2.14862 73 -2.53062 1 107.8682
-4.1956952865 -3.7366938752 -4.1767445 74 -2.96209 1 107.8682
4.1013389896 -1.7881691971 -2.1400075 61 -2.53273 1 107.8682
1.2012512402 -1.2672568467 -2.072247 63 -2.52368 1 107.8682
3.0421051533 -0.2191524907 -4.200886 64 -2.89974 1 107.8682
0.327887442 -3.9583881311 -2.1106455 65 -2.53031 1 107.8682
2.2102849875 -2.9530826156 -4.15308 66 -2.94321 1 107.8682
3.1898996612 -4.6573735611 -2.103941 70 -2.53748 1 107.8682
-4.3526531275 1.2838530783 -2.635372 54 -2.68046 1 107.8682
-2.3336095968 3.1267823639 -1.7548565 55 -2.35132 1 107.8682
-4.0074224148 3.763681441 -4.170305 56 -2.91068 1 107.8682
-2.038894506 1.7487718365 -4.1381605 57 -2.73704 1 107.8682
3.3106760893 4.4209893975 -2.111944 47 -2.52351 1 107.8682
2.1965321685 1.3246708371 -1.767815 48 -2.35308 1 107.8682
0.3781611247 3.3009680379 -2.6042875 49 -2.61837 1 107.8682
0.4508532821 0.7319909987 -4.068439 50 -2.85446 1 107.8682
2.6189874894 2.684926387 -4.225478 51 -2.87171 1 107.8682
-1.2126858583 9.1949477477 -2.0938975 32 -2.53509 1 107.8682
-0.3361943287 6.332733238 -2.141889 37 -2.52836 1 107.8682
-1.3779036699 4.6921359381 -4.2088625 40 -2.90852 1 107.8682
-2.189586765 7.4645289511 -4.1552 41 -2.95259 1 107.8682
-3.2175248888 5.7446136254 -2.1014235 42 -2.52658 1 107.8682
-4.0533181934 8.469311162 -2.1019535 43 -2.5303 1 107.8682
4.2308362687 6.5049004514 -4.171577 30 -2.94868 1 107.8682
3.3456330873 9.3181112232 -4.1438845 31 -2.95652 1 107.8682
2.4453064046 7.3482058143 -2.110195 34 -2.52342 1 107.8682
1.5326251828 5.4862506686 -4.163839 35 -2.93779 1 107.8682
0.6137344944 8.3007697019 -4.135537 36 -2.95871 1 107.8682
-1.1813257514 13.9199397389 -4.1466935 19 -2.95357 1 107.8682
-0.2848627369 11.1154382508 -4.134318 23 -2.95684 1 107.8682
-2.0996736865 11.9973933963 -2.088942 26 -2.53541 1 107.8682
-3.9651566445 13.0040445522 -4.139035 27 -2.95035 1 107.8682
-3.0697027833 10.236211765 -4.1411285 28 -2.95218 1 107.8682
4.2676515071 11.2412556282 -2.092122 16 -2.53674 1 107.8682
2.4494368499 12.1387230172 -4.1371005 20 -2.95899 1 107.8682
0.6330988314 13.0448996899 -2.108764 21 -2.5367 1 107.8682
1.5379423262 10.2027202706 -2.0985615 22 -2.53425 1 107.8682
-0.2631801989 15.8712678345 -2.1339655 7 -2.53095 1 107.8682
-1.1451452584 18.6872820238 -2.0431235 9 -2.49704 1 107.8682
-3.8470065908 17.4412563923 -2.0635285 11 -2.52399 1 107.8682
-2.0565845868 16.7400656072 -4.156896 12 -2.95225 1 107.8682
-2.9702317256 14.7538629979 -2.096892 13 -2.52998 1 107.8682
4.345706804 15.7595796813 -4.143116 1 -2.94248 1 107.8682
3.5037215111 18.4862582996 -4.1918495 2 -2.89898 1 107.8682
3.3680975581 14.056335345 -2.0910355 3 -2.53785 1 107.8682
2.4540456541 16.9225867759 -2.1233125 4 -2.53312 1 107.8682
1.5535073895 14.9790334915 -4.1647135 5 -2.96299 1 107.8682
0.6328228551 17.8099992408 -4.24212 6 -2.94823 1 107.8682
